 128
   1   1
    15.963199351100000    -0.000000000000000    -0.000000000000000
    -0.000000000000000    15.963199351100000    -0.000000000000000
    -0.000000000000000    -0.000000000000000    15.963199351100000
   1   2
     0.528670656980000     0.218753665960000     0.218753665960000
    -0.218753665960000    -0.222964442350000    -0.231248587320000
    -0.218753665960000    -0.231248587320000    -0.222964442350000
   1   3
     0.181320037910000    -0.000000000000000    -0.000000000000000
    -0.000000000000000    -0.002029981470000    -0.030147230270000
    -0.000000000000000    -0.030147230270000    -0.002029981470000
   1   4
     0.528670656980000    -0.218753665960000    -0.218753665960000
     0.218753665960000    -0.222964442350000    -0.231248587320000
     0.218753665960000    -0.231248587320000    -0.222964442350000
   1   5
    -0.222964442350000    -0.218753665960000    -0.231248587320000
     0.218753665960000     0.528670656980000     0.218753665960000
    -0.231248587320000    -0.218753665960000    -0.222964442350000
   1   6
    -0.014007920810000     0.023305921360000    -0.015634543870000
     0.023305921360000    -0.014007920810000    -0.015634543870000
    -0.012531678760000    -0.012531678760000     0.005369066930000
   1   7
    -0.014007920810000     0.015634543870000    -0.023305921360000
     0.012531678760000     0.005369066930000    -0.012531678760000
    -0.023305921360000    -0.015634543870000    -0.014007920810000
   1   8
    -0.222964442350000     0.231248587320000     0.218753665960000
     0.231248587320000    -0.222964442350000    -0.218753665960000
    -0.218753665960000     0.218753665960000     0.528670656980000
   1   9
    -0.002029981470000    -0.000000000000000    -0.030147230270000
    -0.000000000000000     0.181320037910000    -0.000000000000000
    -0.030147230270000    -0.000000000000000    -0.002029981470000
   1  10
     0.005369066930000     0.012531678760000    -0.012531678760000
     0.015634543870000    -0.014007920810000    -0.023305921360000
    -0.015634543870000    -0.023305921360000    -0.014007920810000
   1  11
    -0.002029981470000     0.030147230270000    -0.000000000000000
     0.030147230270000    -0.002029981470000    -0.000000000000000
    -0.000000000000000    -0.000000000000000     0.181320037910000
   1  12
     0.005369066930000     0.015634543870000    -0.015634543870000
     0.012531678760000    -0.014007920810000    -0.023305921360000
    -0.012531678760000    -0.023305921360000    -0.014007920810000
   1  13
    -0.222964442350000     0.218753665960000    -0.231248587320000
    -0.218753665960000     0.528670656980000    -0.218753665960000
    -0.231248587320000     0.218753665960000    -0.222964442350000
   1  14
    -0.222964442350000     0.231248587320000    -0.218753665960000
     0.231248587320000    -0.222964442350000     0.218753665960000
     0.218753665960000    -0.218753665960000     0.528670656980000
   1  15
    -0.014007920810000     0.012531678760000    -0.023305921360000
     0.015634543870000     0.005369066930000    -0.015634543870000
    -0.023305921360000    -0.012531678760000    -0.014007920810000
   1  16
    -0.014007920810000     0.023305921360000    -0.012531678760000
     0.023305921360000    -0.014007920810000    -0.012531678760000
    -0.015634543870000    -0.015634543870000     0.005369066930000
   1  17
    -0.222964442350000    -0.231248587320000    -0.218753665960000
    -0.231248587320000    -0.222964442350000    -0.218753665960000
     0.218753665960000     0.218753665960000     0.528670656980000
   1  18
    -0.014007920810000    -0.015634543870000     0.023305921360000
    -0.012531678760000     0.005369066930000    -0.012531678760000
     0.023305921360000    -0.015634543870000    -0.014007920810000
   1  19
    -0.014007920810000    -0.023305921360000     0.015634543870000
    -0.023305921360000    -0.014007920810000    -0.015634543870000
     0.012531678760000    -0.012531678760000     0.005369066930000
   1  20
    -0.222964442350000     0.218753665960000     0.231248587320000
    -0.218753665960000     0.528670656980000     0.218753665960000
     0.231248587320000    -0.218753665960000    -0.222964442350000
   1  21
     0.005369066930000    -0.012531678760000    -0.012531678760000
    -0.015634543870000    -0.014007920810000     0.023305921360000
    -0.015634543870000     0.023305921360000    -0.014007920810000
   1  22
    -0.010168718490000    -0.000000000000000    -0.000000000000000
    -0.000000000000000    -0.010168718490000    -0.000000000000000
    -0.000000000000000    -0.000000000000000    -0.010168718490000
   1  23
     0.005369066930000     0.012531678760000     0.012531678760000
     0.015634543870000    -0.014007920810000     0.023305921360000
     0.015634543870000     0.023305921360000    -0.014007920810000
   1  24
    -0.016020820900000     0.000000000000000    -0.000000000000000
     0.000000000000000    -0.033163931710000     0.000000000000000
    -0.000000000000000     0.000000000000000    -0.033163931710000
   1  25
    -0.014007920810000    -0.023305921360000    -0.015634543870000
    -0.023305921360000    -0.014007920810000     0.015634543870000
    -0.012531678760000     0.012531678760000     0.005369066930000
   1  26
    -0.014007920810000     0.015634543870000     0.023305921360000
     0.012531678760000     0.005369066930000     0.012531678760000
     0.023305921360000     0.015634543870000    -0.014007920810000
   1  27
    -0.010353046040000    -0.000059244280000     0.000227895880000
    -0.000059244280000    -0.010353046040000     0.000227895880000
    -0.000227895880000    -0.000227895880000    -0.015630435690000
   1  28
    -0.010353046040000    -0.000227895880000     0.000059244280000
     0.000227895880000    -0.015630435690000    -0.000227895880000
     0.000059244280000     0.000227895880000    -0.010353046040000
   1  29
     0.528670656980000    -0.218753665960000     0.218753665960000
     0.218753665960000    -0.222964442350000     0.231248587320000
    -0.218753665960000     0.231248587320000    -0.222964442350000
   1  30
    -0.033163931710000    -0.000000000000000     0.000000000000000
    -0.000000000000000    -0.016020820900000    -0.000000000000000
     0.000000000000000    -0.000000000000000    -0.033163931710000
   1  31
    -0.015630435690000     0.000227895880000    -0.000227895880000
    -0.000227895880000    -0.010353046040000     0.000059244280000
     0.000227895880000     0.000059244280000    -0.010353046040000
   1  32
    -0.033163931710000     0.000000000000000     0.000000000000000
     0.000000000000000    -0.033163931710000     0.000000000000000
     0.000000000000000     0.000000000000000    -0.016020820900000
   1  33
    -0.002029981470000    -0.030147230270000    -0.000000000000000
    -0.030147230270000    -0.002029981470000    -0.000000000000000
    -0.000000000000000    -0.000000000000000     0.181320037910000
   1  34
     0.005369066930000    -0.012531678760000     0.012531678760000
    -0.015634543870000    -0.014007920810000    -0.023305921360000
     0.015634543870000    -0.023305921360000    -0.014007920810000
   1  35
    -0.002029981470000    -0.000000000000000     0.030147230270000
    -0.000000000000000     0.181320037910000    -0.000000000000000
     0.030147230270000    -0.000000000000000    -0.002029981470000
   1  36
     0.005369066930000    -0.015634543870000     0.015634543870000
    -0.012531678760000    -0.014007920810000    -0.023305921360000
     0.012531678760000    -0.023305921360000    -0.014007920810000
   1  37
    -0.014007920810000    -0.015634543870000    -0.023305921360000
    -0.012531678760000     0.005369066930000     0.012531678760000
    -0.023305921360000     0.015634543870000    -0.014007920810000
   1  38
    -0.014007920810000     0.023305921360000     0.015634543870000
     0.023305921360000    -0.014007920810000     0.015634543870000
     0.012531678760000     0.012531678760000     0.005369066930000
   1  39
    -0.010353046040000     0.000227895880000    -0.000059244280000
    -0.000227895880000    -0.015630435690000    -0.000227895880000
    -0.000059244280000     0.000227895880000    -0.010353046040000
   1  40
    -0.010353046040000     0.000059244280000    -0.000227895880000
     0.000059244280000    -0.010353046040000     0.000227895880000
     0.000227895880000    -0.000227895880000    -0.015630435690000
   1  41
     0.181320037910000    -0.000000000000000    -0.000000000000000
    -0.000000000000000    -0.002029981470000     0.030147230270000
    -0.000000000000000     0.030147230270000    -0.002029981470000
   1  42
    -0.015630435690000    -0.000227895880000    -0.000227895880000
     0.000227895880000    -0.010353046040000    -0.000059244280000
     0.000227895880000    -0.000059244280000    -0.010353046040000
   1  43
    -0.012546165500000     0.000000000000000     0.000000000000000
     0.000000000000000    -0.012546165500000     0.000000000000000
     0.000000000000000     0.000000000000000    -0.012546165500000
   1  44
    -0.015630435690000     0.000227895880000     0.000227895880000
    -0.000227895880000    -0.010353046040000    -0.000059244280000
    -0.000227895880000    -0.000059244280000    -0.010353046040000
   1  45
    -0.014007920810000    -0.012531678760000    -0.023305921360000
    -0.015634543870000     0.005369066930000     0.015634543870000
    -0.023305921360000     0.012531678760000    -0.014007920810000
   1  46
    -0.010353046040000     0.000059244280000     0.000227895880000
     0.000059244280000    -0.010353046040000    -0.000227895880000
    -0.000227895880000     0.000227895880000    -0.015630435690000
   1  47
    -0.010353046040000    -0.000227895880000    -0.000059244280000
     0.000227895880000    -0.015630435690000     0.000227895880000
    -0.000059244280000    -0.000227895880000    -0.010353046040000
   1  48
    -0.014007920810000     0.023305921360000     0.012531678760000
     0.023305921360000    -0.014007920810000     0.012531678760000
     0.015634543870000     0.015634543870000     0.005369066930000
   1  49
    -0.222964442350000    -0.231248587320000     0.218753665960000
    -0.231248587320000    -0.222964442350000     0.218753665960000
    -0.218753665960000    -0.218753665960000     0.528670656980000
   1  50
    -0.222964442350000    -0.218753665960000     0.231248587320000
     0.218753665960000     0.528670656980000    -0.218753665960000
     0.231248587320000     0.218753665960000    -0.222964442350000
   1  51
    -0.014007920810000    -0.023305921360000     0.012531678760000
    -0.023305921360000    -0.014007920810000    -0.012531678760000
     0.015634543870000    -0.015634543870000     0.005369066930000
   1  52
    -0.014007920810000    -0.012531678760000     0.023305921360000
    -0.015634543870000     0.005369066930000    -0.015634543870000
     0.023305921360000    -0.012531678760000    -0.014007920810000
   1  53
     0.528670656980000     0.218753665960000    -0.218753665960000
    -0.218753665960000    -0.222964442350000     0.231248587320000
     0.218753665960000     0.231248587320000    -0.222964442350000
   1  54
    -0.033163931710000     0.000000000000000     0.000000000000000
     0.000000000000000    -0.033163931710000     0.000000000000000
     0.000000000000000     0.000000000000000    -0.016020820900000
   1  55
    -0.015630435690000    -0.000227895880000     0.000227895880000
     0.000227895880000    -0.010353046040000     0.000059244280000
    -0.000227895880000     0.000059244280000    -0.010353046040000
   1  56
    -0.033163931710000    -0.000000000000000     0.000000000000000
    -0.000000000000000    -0.016020820900000    -0.000000000000000
     0.000000000000000    -0.000000000000000    -0.033163931710000
   1  57
    -0.014007920810000    -0.023305921360000    -0.012531678760000
    -0.023305921360000    -0.014007920810000     0.012531678760000
    -0.015634543870000     0.015634543870000     0.005369066930000
   1  58
    -0.010353046040000     0.000227895880000     0.000059244280000
    -0.000227895880000    -0.015630435690000     0.000227895880000
     0.000059244280000    -0.000227895880000    -0.010353046040000
   1  59
    -0.010353046040000    -0.000059244280000    -0.000227895880000
    -0.000059244280000    -0.010353046040000    -0.000227895880000
     0.000227895880000     0.000227895880000    -0.015630435690000
   1  60
    -0.014007920810000     0.012531678760000     0.023305921360000
     0.015634543870000     0.005369066930000     0.015634543870000
     0.023305921360000     0.012531678760000    -0.014007920810000
   1  61
     0.005369066930000    -0.015634543870000    -0.015634543870000
    -0.012531678760000    -0.014007920810000     0.023305921360000
    -0.012531678760000     0.023305921360000    -0.014007920810000
   1  62
    -0.016020820900000     0.000000000000000    -0.000000000000000
     0.000000000000000    -0.033163931710000     0.000000000000000
    -0.000000000000000     0.000000000000000    -0.033163931710000
   1  63
     0.005369066930000     0.015634543870000     0.015634543870000
     0.012531678760000    -0.014007920810000     0.023305921360000
     0.012531678760000     0.023305921360000    -0.014007920810000
   1  64
    -0.010168718490000    -0.000000000000000    -0.000000000000000
    -0.000000000000000    -0.010168718490000    -0.000000000000000
    -0.000000000000000    -0.000000000000000    -0.010168718490000
   1  65
    -3.966147249477801    -2.010017444624849    -2.010017444624849
    -2.010017444624849    -3.966147249477801    -2.010017444624849
    -2.010017444624849    -2.010017444624849    -3.966147249477801
   1  66
    -0.241012172893955     0.069544437593699     0.069544437593699
     0.092475941559924    -0.032615933397092    -0.026889460945626
     0.092475941559924    -0.026889460945626    -0.032615933397092
   1  67
    -0.241012172893955    -0.069544437593699    -0.069544437593699
    -0.092475941559924    -0.032615933397092    -0.026889460945626
    -0.092475941559924    -0.026889460945626    -0.032615933397092
   1  68
    -3.966147249477801     2.010017444624849     2.010017444624849
     2.010017444624849    -3.966147249477801    -2.010017444624849
     2.010017444624849    -2.010017444624849    -3.966147249477801
   1  69
    -0.032615933397092     0.092475941559924    -0.026889460945626
     0.069544437593699    -0.241012172893955     0.069544437593699
    -0.026889460945626     0.092475941559924    -0.032615933397092
   1  70
     0.008503047434643    -0.024577071468554     0.024577071468554
    -0.024577071468554     0.008503047434643     0.024577071468554
     0.024577071468554     0.024577071468554     0.008503047434643
   1  71
    -0.032615933397092     0.026889460945626    -0.092475941559924
     0.026889460945626    -0.032615933397092     0.092475941559924
    -0.069544437593699     0.069544437593699    -0.241012172893955
   1  72
     0.032478755338267    -0.038669413295838     0.038669413295838
    -0.057518020100454     0.054744575736877     0.034499712590782
     0.057518020100454     0.034499712590782     0.054744575736877
   1  73
    -0.032615933397092    -0.092475941559924    -0.026889460945626
    -0.069544437593699    -0.241012172893955    -0.069544437593699
    -0.026889460945626    -0.092475941559924    -0.032615933397092
   1  74
    -0.032615933397092     0.026889460945626     0.092475941559924
     0.026889460945626    -0.032615933397092    -0.092475941559924
     0.069544437593699    -0.069544437593699    -0.241012172893955
   1  75
    -0.000365428687823    -0.010611946637732     0.016753937690616
    -0.010611946637732    -0.000365428687823     0.016753937690616
     0.027772011070967     0.027772011070967     0.025515118941345
   1  76
    -0.000365428687823    -0.016753937690616     0.010611946637732
    -0.027772011070967     0.025515118941345     0.027772011070967
     0.010611946637732     0.016753937690616    -0.000365428687823
   1  77
    -3.966147249477801     2.010017444624849    -2.010017444624849
     2.010017444624849    -3.966147249477801     2.010017444624849
    -2.010017444624849     2.010017444624849    -3.966147249477801
   1  78
     0.054744575736877    -0.057518020100454     0.034499712590782
    -0.038669413295838     0.032478755338267     0.038669413295838
     0.034499712590782     0.057518020100454     0.054744575736877
   1  79
     0.025515118941345    -0.027772011070967     0.027772011070967
    -0.016753937690616    -0.000365428687823     0.010611946637732
     0.016753937690616     0.010611946637732    -0.000365428687823
   1  80
     0.054744575736877    -0.034499712590782     0.057518020100454
    -0.034499712590782     0.054744575736877     0.057518020100454
     0.038669413295838     0.038669413295838     0.032478755338267
   1  81
    -0.032615933397092    -0.026889460945626     0.092475941559924
    -0.026889460945626    -0.032615933397092     0.092475941559924
     0.069544437593699     0.069544437593699    -0.241012172893955
   1  82
     0.008503047434643     0.024577071468554    -0.024577071468554
     0.024577071468554     0.008503047434643     0.024577071468554
    -0.024577071468554     0.024577071468554     0.008503047434643
   1  83
    -0.032615933397092    -0.092475941559924     0.026889460945626
    -0.069544437593699    -0.241012172893955     0.069544437593699
     0.026889460945626     0.092475941559924    -0.032615933397092
   1  84
     0.032478755338267     0.038669413295838    -0.038669413295838
     0.057518020100454     0.054744575736877     0.034499712590782
    -0.057518020100454     0.034499712590782     0.054744575736877
   1  85
     0.008503047434643     0.024577071468554     0.024577071468554
     0.024577071468554     0.008503047434643    -0.024577071468554
     0.024577071468554    -0.024577071468554     0.008503047434643
   1  86
     0.008503047434643    -0.024577071468554    -0.024577071468554
    -0.024577071468554     0.008503047434643    -0.024577071468554
    -0.024577071468554    -0.024577071468554     0.008503047434643
   1  87
     0.007261614462460     0.000381650989385     0.000381650989385
     0.004805216483800     0.015340320640448     0.004681414708720
     0.004805216483800     0.004681414708720     0.015340320640448
   1  88
     0.007261614462460    -0.000381650989385    -0.000381650989385
    -0.004805216483800     0.015340320640448     0.004681414708720
    -0.004805216483800     0.004681414708720     0.015340320640448
   1  89
    -0.241012172893955    -0.069544437593699     0.069544437593699
    -0.092475941559924    -0.032615933397092     0.026889460945626
     0.092475941559924     0.026889460945626    -0.032615933397092
   1  90
     0.015340320640448     0.004805216483800     0.004681414708720
     0.000381650989385     0.007261614462460     0.000381650989385
     0.004681414708720     0.004805216483800     0.015340320640448
   1  91
     0.012406360871940    -0.000505452764465     0.000505452764465
    -0.000505452764465     0.012406360871940     0.000505452764465
     0.000505452764465     0.000505452764465     0.012406360871940
   1  92
     0.015340320640448    -0.004681414708720    -0.004805216483800
    -0.004681414708720     0.015340320640448     0.004805216483800
    -0.000381650989385     0.000381650989385     0.007261614462460
   1  93
     0.054744575736877     0.057518020100454     0.034499712590782
     0.038669413295838     0.032478755338267    -0.038669413295838
     0.034499712590782    -0.057518020100454     0.054744575736877
   1  94
     0.015340320640448    -0.004805216483800     0.004681414708720
    -0.000381650989385     0.007261614462460    -0.000381650989385
     0.004681414708720    -0.004805216483800     0.015340320640448
   1  95
     0.015340320640448    -0.004681414708720     0.004805216483800
    -0.004681414708720     0.015340320640448    -0.004805216483800
     0.000381650989385    -0.000381650989385     0.007261614462460
   1  96
     0.054744575736877    -0.034499712590782    -0.057518020100454
    -0.034499712590782     0.054744575736877    -0.057518020100454
    -0.038669413295838    -0.038669413295838     0.032478755338267
   1  97
    -0.032615933397092    -0.026889460945626    -0.092475941559924
    -0.026889460945626    -0.032615933397092    -0.092475941559924
    -0.069544437593699    -0.069544437593699    -0.241012172893955
   1  98
    -0.032615933397092     0.092475941559924     0.026889460945626
     0.069544437593699    -0.241012172893955    -0.069544437593699
     0.026889460945626    -0.092475941559924    -0.032615933397092
   1  99
    -0.000365428687823     0.016753937690616    -0.010611946637732
     0.027772011070967     0.025515118941345     0.027772011070967
    -0.010611946637732     0.016753937690616    -0.000365428687823
   1 100
    -0.000365428687823     0.010611946637732    -0.016753937690616
     0.010611946637732    -0.000365428687823     0.016753937690616
    -0.027772011070967     0.027772011070967     0.025515118941345
   1 101
    -0.241012172893955     0.069544437593699    -0.069544437593699
     0.092475941559924    -0.032615933397092     0.026889460945626
    -0.092475941559924     0.026889460945626    -0.032615933397092
   1 102
     0.015340320640448     0.004681414708720     0.004805216483800
     0.004681414708720     0.015340320640448     0.004805216483800
     0.000381650989385     0.000381650989385     0.007261614462460
   1 103
     0.012406360871940     0.000505452764465    -0.000505452764465
     0.000505452764465     0.012406360871940     0.000505452764465
    -0.000505452764465     0.000505452764465     0.012406360871940
   1 104
     0.015340320640448    -0.004805216483800    -0.004681414708720
    -0.000381650989385     0.007261614462460     0.000381650989385
    -0.004681414708720     0.004805216483800     0.015340320640448
   1 105
     0.025515118941345     0.027772011070967     0.027772011070967
     0.016753937690616    -0.000365428687823    -0.010611946637732
     0.016753937690616    -0.010611946637732    -0.000365428687823
   1 106
     0.012406360871940     0.000505452764465     0.000505452764465
     0.000505452764465     0.012406360871940    -0.000505452764465
     0.000505452764465    -0.000505452764465     0.012406360871940
   1 107
     0.012406360871940    -0.000505452764465    -0.000505452764465
    -0.000505452764465     0.012406360871940    -0.000505452764465
    -0.000505452764465    -0.000505452764465     0.012406360871940
   1 108
     0.025515118941345    -0.027772011070967    -0.027772011070967
    -0.016753937690616    -0.000365428687823    -0.010611946637732
    -0.016753937690616    -0.010611946637732    -0.000365428687823
   1 109
    -0.000365428687823     0.010611946637732     0.016753937690616
     0.010611946637732    -0.000365428687823    -0.016753937690616
     0.027772011070967    -0.027772011070967     0.025515118941345
   1 110
     0.007261614462460    -0.000381650989385     0.000381650989385
    -0.004805216483800     0.015340320640448    -0.004681414708720
     0.004805216483800    -0.004681414708720     0.015340320640448
   1 111
    -0.000365428687823    -0.016753937690616    -0.010611946637732
    -0.027772011070967     0.025515118941345    -0.027772011070967
    -0.010611946637732    -0.016753937690616    -0.000365428687823
   1 112
     0.015312998869396     0.000075704073957    -0.000075704073957
     0.000075704073957     0.015312998869396    -0.000075704073957
    -0.000075704073957    -0.000075704073957     0.015312998869396
   1 113
    -3.966147249477801    -2.010017444624849     2.010017444624849
    -2.010017444624849    -3.966147249477801     2.010017444624849
     2.010017444624849     2.010017444624849    -3.966147249477801
   1 114
     0.054744575736877     0.034499712590782    -0.057518020100454
     0.034499712590782     0.054744575736877     0.057518020100454
    -0.038669413295838     0.038669413295838     0.032478755338267
   1 115
     0.025515118941345     0.027772011070967    -0.027772011070967
     0.016753937690616    -0.000365428687823     0.010611946637732
    -0.016753937690616     0.010611946637732    -0.000365428687823
   1 116
     0.054744575736877     0.057518020100454    -0.034499712590782
     0.038669413295838     0.032478755338267     0.038669413295838
    -0.034499712590782     0.057518020100454     0.054744575736877
   1 117
     0.054744575736877     0.034499712590782     0.057518020100454
     0.034499712590782     0.054744575736877    -0.057518020100454
     0.038669413295838    -0.038669413295838     0.032478755338267
   1 118
     0.015340320640448     0.004681414708720    -0.004805216483800
     0.004681414708720     0.015340320640448    -0.004805216483800
    -0.000381650989385    -0.000381650989385     0.007261614462460
   1 119
     0.015340320640448     0.004805216483800    -0.004681414708720
     0.000381650989385     0.007261614462460    -0.000381650989385
    -0.004681414708720    -0.004805216483800     0.015340320640448
   1 120
     0.054744575736877    -0.057518020100454    -0.034499712590782
    -0.038669413295838     0.032478755338267    -0.038669413295838
    -0.034499712590782    -0.057518020100454     0.054744575736877
   1 121
    -0.000365428687823     0.016753937690616     0.010611946637732
     0.027772011070967     0.025515118941345    -0.027772011070967
     0.010611946637732    -0.016753937690616    -0.000365428687823
   1 122
     0.007261614462460     0.000381650989385    -0.000381650989385
     0.004805216483800     0.015340320640448    -0.004681414708720
    -0.004805216483800    -0.004681414708720     0.015340320640448
   1 123
    -0.000365428687823    -0.010611946637732    -0.016753937690616
    -0.010611946637732    -0.000365428687823    -0.016753937690616
    -0.027772011070967    -0.027772011070967     0.025515118941345
   1 124
     0.015312998869396    -0.000075704073957     0.000075704073957
    -0.000075704073957     0.015312998869396    -0.000075704073957
     0.000075704073957    -0.000075704073957     0.015312998869396
   1 125
     0.032478755338267     0.038669413295838     0.038669413295838
     0.057518020100454     0.054744575736877    -0.034499712590782
     0.057518020100454    -0.034499712590782     0.054744575736877
   1 126
     0.032478755338267    -0.038669413295838    -0.038669413295838
    -0.057518020100454     0.054744575736877    -0.034499712590782
    -0.057518020100454    -0.034499712590782     0.054744575736877
   1 127
     0.015312998869396    -0.000075704073957    -0.000075704073957
    -0.000075704073957     0.015312998869396     0.000075704073957
    -0.000075704073957     0.000075704073957     0.015312998869396
   1 128
     0.015312998869396     0.000075704073957     0.000075704073957
     0.000075704073957     0.015312998869396     0.000075704073957
     0.000075704073957     0.000075704073957     0.015312998869396
   2   1
     0.528670656980000    -0.218753665960000    -0.218753665960000
     0.218753665960000    -0.222964442350000    -0.231248587320000
     0.218753665960000    -0.231248587320000    -0.222964442350000
   2   2
    15.963199351100000    -0.000000000000000    -0.000000000000000
    -0.000000000000000    15.963199351100000    -0.000000000000000
    -0.000000000000000    -0.000000000000000    15.963199351100000
   2   3
     0.528670656980000     0.218753665960000     0.218753665960000
    -0.218753665960000    -0.222964442350000    -0.231248587320000
    -0.218753665960000    -0.231248587320000    -0.222964442350000
   2   4
     0.181320037910000    -0.000000000000000    -0.000000000000000
    -0.000000000000000    -0.002029981470000    -0.030147230270000
    -0.000000000000000    -0.030147230270000    -0.002029981470000
   2   5
    -0.222964442350000     0.231248587320000     0.218753665960000
     0.231248587320000    -0.222964442350000    -0.218753665960000
    -0.218753665960000     0.218753665960000     0.528670656980000
   2   6
    -0.222964442350000    -0.218753665960000    -0.231248587320000
     0.218753665960000     0.528670656980000     0.218753665960000
    -0.231248587320000    -0.218753665960000    -0.222964442350000
   2   7
    -0.014007920810000     0.023305921360000    -0.015634543870000
     0.023305921360000    -0.014007920810000    -0.015634543870000
    -0.012531678760000    -0.012531678760000     0.005369066930000
   2   8
    -0.014007920810000     0.015634543870000    -0.023305921360000
     0.012531678760000     0.005369066930000    -0.012531678760000
    -0.023305921360000    -0.015634543870000    -0.014007920810000
   2   9
     0.005369066930000     0.015634543870000    -0.015634543870000
     0.012531678760000    -0.014007920810000    -0.023305921360000
    -0.012531678760000    -0.023305921360000    -0.014007920810000
   2  10
    -0.002029981470000    -0.000000000000000    -0.030147230270000
    -0.000000000000000     0.181320037910000    -0.000000000000000
    -0.030147230270000    -0.000000000000000    -0.002029981470000
   2  11
     0.005369066930000     0.012531678760000    -0.012531678760000
     0.015634543870000    -0.014007920810000    -0.023305921360000
    -0.015634543870000    -0.023305921360000    -0.014007920810000
   2  12
    -0.002029981470000     0.030147230270000    -0.000000000000000
     0.030147230270000    -0.002029981470000    -0.000000000000000
    -0.000000000000000    -0.000000000000000     0.181320037910000
   2  13
    -0.014007920810000     0.023305921360000    -0.012531678760000
     0.023305921360000    -0.014007920810000    -0.012531678760000
    -0.015634543870000    -0.015634543870000     0.005369066930000
   2  14
    -0.222964442350000     0.218753665960000    -0.231248587320000
    -0.218753665960000     0.528670656980000    -0.218753665960000
    -0.231248587320000     0.218753665960000    -0.222964442350000
   2  15
    -0.222964442350000     0.231248587320000    -0.218753665960000
     0.231248587320000    -0.222964442350000     0.218753665960000