 1372

    1
0.0000000000e+00 0.0000000000e+00 0.0000000000e+00
0.0000000000e+00 0.0000000000e+00 0.0000000000e+00
     1      1      1
 1  1  1     0.0000000000e+00
 1  1  2     0.0000000000e+00
 1  1  3     0.0000000000e+00
 1  2  1     0.0000000000e+00
 1  2  2     0.0000000000e+00
 1  2  3     0.0000000000e+00
 1  3  1     0.0000000000e+00
 1  3  2     0.0000000000e+00
 1  3  3     0.0000000000e+00
 2  1  1     0.0000000000e+00
 2  1  2     0.0000000000e+00
 2  1  3     0.0000000000e+00
 2  2  1     0.0000000000e+00
 2  2  2     0.0000000000e+00
 2  2  3     0.0000000000e+00
 2  3  1     0.0000000000e+00
 2  3  2     0.0000000000e+00
 2  3  3     0.0000000000e+00
 3  1  1     0.0000000000e+00
 3  1  2     0.0000000000e+00
 3  1  3     0.0000000000e+00
 3  2  1     0.0000000000e+00
 3  2  2     0.0000000000e+00
 3  2  3     0.0000000000e+00
 3  3  1     0.0000000000e+00
 3  3  2     0.0000000000e+00
 3  3  3     0.0000000000e+00

    2
0.0000000000e+00 0.0000000000e+00 0.0000000000e+00
0.0000000000e+00 0.0000000000e+00 0.0000000000e+00
     1      1      4
 1  1  1    -5.4295051011e-03
 1  1  2     0.0000000000e+00
 1  1  3     2.6558183635e-02
 1  2  1     0.0000000000e+00
 1  2  2     5.4295051011e-03
 1  2  3     0.0000000000e+00
 1  3  1    -8.1596813552e-03
 1  3  2     0.0000000000e+00
 1  3  3     0.0000000000e+00
 2  1  1     0.0000000000e+00
 2  1  2     5.4295051011e-03
 2  1  3     0.0000000000e+00
 2  2  1     5.4295051011e-03
 2  2  2     0.0000000000e+00
 2  2  3     2.6558183635e-02
 2  3  1     0.0000000000e+00
 2  3  2    -8.1596813552e-03
 2  3  3     0.0000000000e+00
 3  1  1    -8.1596813552e-03
 3  1  2     0.0000000000e+00
 3  1  3     0.0000000000e+00
 3  2  1     0.0000000000e+00
 3  2  2    -8.1596813552e-03
 3  2  3     0.0000000000e+00
 3  3  1     0.0000000000e+00
 3  3  2     0.0000000000e+00
 3  3  3    -1.5444178435e-01

    3
0.0000000000e+00 0.0000000000e+00 0.0000000000e+00
-3.2826967679e+00 0.0000000000e+00 -9.4304100289e+00
     1      1      3
 1  1  1    -7.2175590640e-02
 1  1  2     0.0000000000e+00
 1  1  3     1.4848760764e-01
 1  2  1     0.0000000000e+00
 1  2  2     5.8248536563e-02
 1  2  3     0.0000000000e+00
 1  3  1     2.8396896656e-03
 1  3  2     0.0000000000e+00
 1  3  3     1.4044316089e-02
 2  1  1     0.0000000000e+00
 2  1  2     5.8248536563e-02
 2  1  3     0.0000000000e+00
 2  2  1     2.1240668544e-02
 2  2  2     0.0000000000e+00
 2  2  3    -1.2762986385e-01
 2  3  1     0.0000000000e+00
 2  3  2     3.4197686909e-04
 2  3  3     0.0000000000e+00
 3  1  1     2.8396896656e-03
 3  1  2     0.0000000000e+00
 3  1  3     1.4044316089e-02
 3  2  1     0.0000000000e+00
 3  2  2     3.4197686909e-04
 3  2  3     0.0000000000e+00
 3  3  1     6.3299939296e-02
 3  3  2     0.0000000000e+00
 3  3  3    -1.8508179149e-01

    4
0.0000000000e+00 0.0000000000e+00 0.0000000000e+00
-1.6413483840e+00 0.0000000000e+00 -4.7152050144e+00
     1      1      2
 1  1  1    -1.1972695576e-01
 1  1  2     0.0000000000e+00
 1  1  3    -3.6241595953e-01
 1  2  1     0.0000000000e+00
 1  2  2    -2.0899964264e-01
 1  2  3     0.0000000000e+00
 1  3  1    -3.8680013056e-01
 1  3  2     0.0000000000e+00
 1  3  3     7.3809365716e-01
 2  1  1     0.0000000000e+00
 2  1  2    -2.0899964264e-01
 2  1  3     0.0000000000e+00
 2  2  1    -1.6083371403e-01
 2  2  2     0.0000000000e+00
 2  2  3     4.3038788248e-01
 2  3  1     0.0000000000e+00
 2  3  2     1.9055520494e-01
 2  3  3     0.0000000000e+00
 3  1  1    -3.8680013056e-01
 3  1  2     0.0000000000e+00
 3  1  3     7.3809365716e-01
 3  2  1     0.0000000000e+00
 3  2  2     1.9055520494e-01
 3  2  3     0.0000000000e+00
 3  3  1     5.1876245997e-01
 3  3  2     0.0000000000e+00
 3  3  3    -4.0532967612e-01

    5
0.0000000000e+00 0.0000000000e+00 0.0000000000e+00
-1.6413483840e+00 0.0000000000e+00 -4.7152050144e+00
     1      1      4
 1  1  1     3.0304830225e+00
 1  1  2     0.0000000000e+00
 1  1  3     1.7932206015e+00
 1  2  1     0.0000000000e+00
 1  2  2     1.5045925189e-01
 1  2  3     0.0000000000e+00
 1  3  1     2.4357822625e+00
 1  3  2     0.0000000000e+00
 1  3  3     1.7863622128e+00
 2  1  1     0.0000000000e+00
 2  1  2     1.5045925189e-01
 2  1  3     0.0000000000e+00
 2  2  1    -6.9485464844e-02
 2  2  2     0.0000000000e+00
 2  2  3     1.4527045372e-01
 2  3  1     0.0000000000e+00
 2  3  2     1.4915326570e-02
 2  3  3     0.0000000000e+00
 3  1  1     2.4357822625e+00
 3  1  2     0.0000000000e+00
 3  1  3     1.7863622128e+00
 3  2  1     0.0000000000e+00
 3  2  2     1.4915326570e-02
 3  2  3     0.0000000000e+00
 3  3  1     1.8843343998e+00
 3  3  2     0.0000000000e+00
 3  3  3     1.5828029977e+00

    6
0.0000000000e+00 0.0000000000e+00 0.0000000000e+00
1.6413483840e+00 -2.8428987939e+00 -9.4304100289e+00
     1      1      3
 1  1  1    -4.2629704296e-02
 1  1  2    -2.7052611041e-02
 1  1  3    -5.8600495979e-02
 1  2  1     4.9971428034e-03
 1  2  2     4.9593231334e-02
 1  2  3    -1.1956237237e-01
 1  3  1     9.6640506822e-04
 1  3  2    -1.0815413666e-03
 1  3  3    -7.0221580444e-03
 2  1  1     4.9971428034e-03
 2  1  2     4.9593231334e-02
 2  1  3    -1.1956237237e-01
 2  2  1     6.8097165344e-02
 2  2  2    -1.7058325434e-02
 2  2  3     7.9458239767e-02
 2  3  1    -1.0815413666e-03
 2  3  2     2.2152614665e-03
 2  3  3     1.2162734512e-02
 3  1  1     9.6640506822e-04
 3  1  2    -1.0815413666e-03
 3  1  3    -7.0221580444e-03
 3  2  1    -1.0815413666e-03
 3  2  2     2.2152614665e-03
 3  2  3     1.2162734512e-02
 3  3  1    -3.1649969648e-02
 3  3  2     5.4819355488e-02
 3  3  3    -1.8508179149e-01

    7
0.0000000000e+00 0.0000000000e+00 0.0000000000e+00
-2.4620225759e+00 1.4214493970e+00 -5.5511151231e-16
     1      1      1
 1  1  1     5.2163590090e-01
 1  1  2    -5.2881127729e-01
 1  1  3    -4.4506587443e-03
 1  2  1    -5.3934011696e-01
 1  2  2     1.7995746205e-01
 1  2  3    -2.5695890241e-03
 1  3  1    -8.1076553869e-03
 1  3  2     1.1566792324e-02
 1  3  3    -1.6824027986e-01
 2  1  1    -5.3934011696e-01
 2  1  2     1.7995746205e-01
 2  1  3    -2.5695890241e-03
 2  2  1     1.6172097680e-01
 2  2  2     1.3427500000e-01
 2  2  3     4.4506587443e-03
 2  3  1    -2.0928706364e-02
 2  3  2     8.1076553869e-03
 2  3  3     9.7133570868e-02
 3  1  1    -8.1076553869e-03
 3  1  2     1.1566792324e-02
 3  1  3    -1.6824027986e-01
 3  2  1    -2.0928706364e-02
 3  2  2     8.1076553869e-03
 3  2  3     9.7133570868e-02
 3  3  1    -3.0711886831e-01
 3  3  2     1.7731516129e-01
 3  3  3     0.0000000000e+00

    8
0.0000000000e+00 0.0000000000e+00 0.0000000000e+00
8.2067419198e-01 -1.4214493970e+00 -4.7152050144e+00
     1      1      2
 1  1  1     2.3202824421e-01
 1  1  2    -3.9886707948e-02
 1  1  3     2.3218692198e-01
 1  2  1    -8.1599625721e-02
 1  2  2    -6.7664945011e-02
 1  2  3     3.4329413370e-01
 1  3  1     4.6216371066e-02
 1  3  2     2.5000219378e-01
 1  3  3    -3.6904682858e-01
 2  1  1    -8.1599625721e-02
 2  1  2    -6.7664945011e-02
 2  1  3     3.4329413370e-01
 2  2  1    -9.1747909316e-02
 2  2  2    -2.0308595939e-01
 2  2  3    -1.6421499903e-01
 2  3  1     2.5000219378e-01
 2  3  2    -2.4246129669e-01
 2  3  3     6.3920785748e-01
 3  1  1     4.6216371066e-02
 3  1  2     2.5000219378e-01
 3  1  3    -3.6904682858e-01
 3  2  1     2.5000219378e-01
 3  2  2    -2.4246129669e-01
 3  2  3     6.3920785748e-01
 3  3  1    -2.5938122998e-01
 3  3  2     4.4926146886e-01
 3  3  3    -4.0532967612e-01

    9
0.0000000000e+00 0.0000000000e+00 0.0000000000e+00
8.2067419198e-01 -1.4214493970e+00 -4.7152050144e+00
     1      1      4
 1  1  1    -4.6559776741e-01
 1  1  2     5.4583592031e-01
 1  1  3     5.5725799068e-01
 1  2  1     7.3631363243e-01
 1  2  2    -1.1248733698e+00
 1  2  3    -7.1358334609e-01
 1  3  1     6.2013206056e-01
 1  3  2    -1.0482661329e+00
 1  3  3    -8.9318110638e-01
 2  1  1     7.3631363243e-01
 2  1  2    -1.1248733698e+00
 2  1  3    -7.1358334609e-01
 2  2  1    -1.0149010114e+00
 2  2  2     2.0184631852e+00
 2  2  3     1.3812330646e+00
 2  3  1    -1.0482661329e+00
 2  3  2     1.8305655286e+00
 2  3  3     1.5470350566e+00
 3  1  1     6.2013206056e-01
 3  1  2    -1.0482661329e+00
 3  1  3    -8.9318110638e-01
 3  2  1    -1.0482661329e+00
 3  2  2     1.8305655286e+00
 3  2  3     1.5470350566e+00
 3  3  1    -9.4216719990e-01
 3  3  2     1.6318814595e+00
 3  3  3     1.5828029977e+00

   10
0.0000000000e+00 0.0000000000e+00 0.0000000000e+00
2.4620225759e+00 -1.4214493970e+00 -5.5511151231e-16
     1      1      1
 1  1  1    -5.2163590090e-01
 1  1  2     5.2881127729e-01
 1  1  3     4.4506587443e-03
 1  2  1     5.3934011696e-01
 1  2  2    -1.7995746205e-01
 1  2  3     2.5695890241e-03
 1  3  1     8.1076553869e-03
 1  3  2    -1.1566792324e-02
 1  3  3     1.6824027986e-01
 2  1  1     5.3934011696e-01
 2  1  2    -1.7995746205e-01
 2  1  3     2.5695890241e-03
 2  2  1    -1.6172097680e-01
 2  2  2    -1.3427500000e-01
 2  2  3    -4.4506587443e-03
 2  3  1     2.0928706364e-02
 2  3  2    -8.1076553869e-03
 2  3  3    -9.7133570868e-02
 3  1  1     8.1076553869e-03
 3  1  2    -1.1566792324e-02
 3  1  3     1.6824027986e-01
 3  2  1     2.0928706364e-02
 3  2  2    -8.1076553869e-03
 3  2  3    -9.7133570868e-02
 3  3  1     3.0711886831e-01
 3  3  2    -1.7731516129e-01
 3  3  3     0.0000000000e+00

   11
0.0000000000e+00 0.0000000000e+00 0.0000000000e+00
-8.2067419198e-01 -1.4214493970e+00 -9.4304100289e+00
     1      1      2
 1  1  1    -2.3202824421e-01
 1  1  2    -3.9886707948e-02
 1  1  3    -2.3218692198e-01
 1  2  1    -8.1599625721e-02
 1  2  2     6.7664945011e-02
 1  2  3     3.4329413370e-01
 1  3  1    -4.6216371066e-02
 1  3  2     2.5000219378e-01
 1  3  3     3.6904682858e-01
 2  1  1    -8.1599625721e-02
 2  1  2     6.7664945011e-02
 2  1  3     3.4329413370e-01
 2  2  1     9.1747909316e-02
 2  2  2    -2.0308595939e-01
 2  2  3     1.6421499903e-01
 2  3  1     2.5000219378e-01
 2  3  2     2.4246129669e-01
 2  3  3     6.3920785748e-01
 3  1  1    -4.6216371066e-02
 3  1  2     2.5000219378e-01
 3  1  3     3.6904682858e-01
 3  2  1     2.5000219378e-01
 3  2  2     2.4246129669e-01
 3  2  3     6.3920785748e-01
 3  3  1     2.5938122998e-01
 3  3  2     4.4926146886e-01
 3  3  3     4.0532967612e-01

   12
0.0000000000e+00 0.0000000000e+00 0.0000000000e+00
-8.2067419198e-01 -1.4214493970e+00 -9.4304100289e+00
     1      1      3
 1  1  1     4.6559776741e-01
 1  1  2     5.4583592031e-01
 1  1  3    -5.5725799068e-01
 1  2  1     7.3631363243e-01
 1  2  2     1.1248733698e+00
 1  2  3    -7.1358334609e-01
 1  3  1    -6.2013206056e-01
 1  3  2    -1.0482661329e+00
 1  3  3     8.9318110638e-01
 2  1  1     7.3631363243e-01
 2  1  2     1.1248733698e+00
 2  1  3    -7.1358334609e-01
 2  2  1     1.0149010114e+00
 2  2  2     2.0184631852e+00
 2  2  3    -1.3812330646e+00
 2  3  1    -1.0482661329e+00
 2  3  2    -1.8305655286e+00
 2  3  3     1.5470350566e+00
 3  1  1    -6.2013206056e-01
 3  1  2    -1.0482661329e+00
 3  1  3     8.9318110638e-01
 3  2  1    -1.0482661329e+00
 3  2  2    -1.8305655286e+00
 3  2  3     1.5470350566e+00
 3  3  1     9.4216719990e-01
 3  3  2     1.6318814595e+00
 3  3  3    -1.5828029977e+00

   13
0.0000000000e+00 0.0000000000e+00 0.0000000000e+00
1.6413483840e+00 2.8428987939e+00 -9.4304100289e+00
     1      1      3
 1  1  1    -4.2629704296e-02
 1  1  2     2.7052611041e-02
 1  1  3    -5.8600495979e-02
 1  2  1    -4.9971428034e-03
 1  2  2     4.9593231334e-02
 1  2  3     1.1956237237e-01
 1  3  1     9.6640506822e-04
 1  3  2     1.0815413666e-03
 1  3  3    -7.0221580444e-03
 2  1  1    -4.9971428034e-03
 2  1  2     4.9593231334e-02
 2  1  3     1.1956237237e-01
 2  2  1     6.8097165344e-02
 2  2  2     1.7058325434e-02
 2  2  3     7.9458239767e-02
 2  3  1     1.0815413666e-03
 2  3  2     2.2152614665e-03
 2  3  3    -1.2162734512e-02
 3  1  1     9.6640506822e-04
 3  1  2     1.0815413666e-03
 3  1  3    -7.0221580444e-03
 3  2  1     1.0815413666e-03
 3  2  2     2.2152614665e-03
 3  2  3    -1.2162734512e-02
 3  3  1    -3.1649969648e-02
 3  3  2    -5.4819355488e-02
 3  3  3    -1.8508179149e-01

   14
0.0000000000e+00 0.0000000000e+00 0.0000000000e+00
-2.4620225759e+00 -1.4214493970e+00 -5.5511151231e-16
     1      1      1
 1  1  1     5.2163590090e-01
 1  1  2     5.2881127729e-01
 1  1  3    -4.4506587443e-03
 1  2  1     5.3934011696e-01
 1  2  2     1.7995746205e-01
 1  2  3     2.5695890241e-03
 1  3  1    -8.1076553869e-03
 1  3  2    -1.1566792324e-02
 1  3  3    -1.6824027986e-01
 2  1  1     5.3934011696e-01
 2  1  2     1.7995746205e-01
 2  1  3     2.5695890241e-03
 2  2  1     1.6172097680e-01
 2  2  2    -1.3427500000e-01
 2  2  3     4.4506587443e-03
 2  3  1     2.0928706364e-02
 2  3  2     8.1076553869e-03
 2  3  3    -9.7133570868e-02
 3  1  1    -8.1076553869e-03
 3  1  2    -1.1566792324e-02
 3  1  3    -1.6824027986e-01
 3  2  1     2.0928706364e-02
 3  2  2     8.1076553869e-03
 3  2  3    -9.7133570868e-02
 3  3  1    -3.0711886831e-01
 3  3  2    -1.7731516129e-01
 3  3  3     0.0000000000e+00

   15
0.0000000000e+00 0.0000000000e+00 0.0000000000e+00
1.3877787808e-16 -2.8428987939e+00 -5.5511151231e-16
     1      1      1
 1  1  1     0.0000000000e+00
 1  1  2    -2.4870232882e-01
 1  1  3     0.0000000000e+00
 1  2  1    -2.2764464949e-01
 1  2  2     0.0000000000e+00
 1  2  3     5.1391780482e-03
 1  3  1     0.0000000000e+00
 1  3  2     2.5609663384e-02
 1  3  3     0.0000000000e+00
 2  1  1    -2.2764464949e-01
 2  1  2     0.0000000000e+00
 2  1  3     5.1391780482e-03
 2  2  1     0.0000000000e+00
 2  2  2     1.0377748834e+00
 2  2  3     0.0000000000e+00
 2  3  1    -6.8858353039e-03
 2  3  2     0.0000000000e+00
 2  3  3    -1.9426714174e-01
 3  1  1     0.0000000000e+00
 3  1  2     2.5609663384e-02
 3  1  3     0.0000000000e+00
 3  2  1    -6.8858353039e-03
 3  2  2     0.0000000000e+00
 3  2  3    -1.9426714174e-01
 3  3  1     0.0000000000e+00
 3  3  2    -3.5463032258e-01
 3  3  3     0.0000000000e+00

   16
0.0000000000e+00 0.0000000000e+00 0.0000000000e+00
-1.6413483840e+00 -2.8428987939e+00 -4.7152050144e+00
     1      1      4
 1  1  1     4.2629704296e-02
 1  1  2    -2.7052611041e-02
 1  1  3     5.8600495979e-02
 1  2  1     4.9971428034e-03
 1  2  2    -4.9593231334e-02
 1  2  3    -1.1956237237e-01
 1  3  1    -9.6640506822e-04
 1  3  2    -1.0815413666e-03
 1  3  3     7.0221580444e-03
 2  1  1     4.9971428034e-03
 2  1  2    -4.9593231334e-02
 2  1  3    -1.1956237237e-01
 2  2  1    -6.8097165344e-02
 2  2  2    -1.7058325434e-02
 2  2  3    -7.9458239767e-02
 2  3  1    -1.0815413666e-03
 2  3  2    -2.2152614665e-03
 2  3  3     1.2162734512e-02
 3  1  1    -9.6640506822e-04
 3  1  2    -1.0815413666e-03
 3  1  3     7.0221580444e-03
 3  2  1    -1.0815413666e-03
 3  2  2    -2.2152614665e-03
 3  2  3     1.2162734512e-02
 3  3  1     3.1649969648e-02
 3  3  2     5.4819355488e-02
 3  3  3     1.8508179149e-01

   17
0.0000000000e+00 0.0000000000e+00 0.0000000000e+00
8.2067419198e-01 1.4214493970e+00 -4.7152050144e+00
     1      1      2
 1  1  1     2.3202824421e-01
 1  1  2     3.9886707948e-02
 1  1  3     2.3218692198e-01
 1  2  1     8.1599625721e-02
 1  2  2    -6.7664945011e-02
 1  2  3    -3.4329413370e-01
 1  3  1     4.6216371066e-02
 1  3  2    -2.5000219378e-01
 1  3  3    -3.6904682858e-01
 2  1  1     8.1599625721e-02
 2  1  2    -6.7664945011e-02
 2  1  3    -3.4329413370e-01
 2  2  1    -9.1747909316e-02
 2  2  2     2.0308595939e-01
 2  2  3    -1.6421499903e-01
 2  3  1    -2.5000219378e-01
 2  3  2    -2.4246129669e-01
 2  3  3    -6.3920785748e-01
 3  1  1     4.6216371066e-02
 3  1  2    -2.5000219378e-01
 3  1  3    -3.6904682858e-01
 3  2  1    -2.5000219378e-01
 3  2  2    -2.4246129669e-01
 3  2  3    -6.3920785748e-01
 3  3  1    -2.5938122998e-01
 3  3  2    -4.4926146886e-01
 3  3  3    -4.0532967612e-01

   18
0.0000000000e+00 0.0000000000e+00 0.0000000000e+00
8.2067419198e-01 1.4214493970e+00 -4.7152050144e+00
     1      1      4
 1  1  1    -4.6559776741e-01
 1  1  2    -5.4583592031e-01
 1  1  3     5.5725799068e-01
 1  2  1    -7.3631363243e-01
 1  2  2    -1.1248733698e+00
 1  2  3     7.1358334609e-01
 1  3  1     6.2013206056e-01
 1  3  2     1.0482661329e+00
 1  3  3    -8.9318110638e-01
 2  1  1    -7.3631363243e-01
 2  1  2    -1.1248733698e+00
 2  1  3     7.1358334609e-01
 2  2  1    -1.0149010114e+00
 2  2  2    -2.0184631852e+00
 2  2  3     1.3812330646e+00
 2  3  1     1.0482661329e+00
 2  3  2     1.8305655286e+00
 2  3  3    -1.5470350566e+00
 3  1  1     6.2013206056e-01
 3  1  2     1.0482661329e+00
 3  1  3    -8.9318110638e-01
 3  2  1     1.0482661329e+00
 3  2  2     1.8305655286e+00
 3  2  3    -1.5470350566e+00
 3  3  1    -9.4216719990e-01
 3  3  2    -1.6318814595e+00
 3  3  3     1.5828029977e+00

   19
0.0000000000e+00 0.0000000000e+00 0.0000000000e+00
2.4620225759e+00 1.4214493970e+00 -5.5511151231e-16
     1      1      1
 1  1  1    -5.2163590090e-01
 1  1  2    -5.2881127729e-01
 1  1  3     4.4506587443e-03
 1  2  1    -5.3934011696e-01
 1  2  2    -1.7995746205e-01
 1  2  3    -2.5695890241e-03
 1  3  1     8.1076553869e-03
 1  3  2     1.1566792324e-02
 1  3  3     1.6824027986e-01
 2  1  1    -5.3934011696e-01
 2  1  2    -1.7995746205e-01
 2  1  3    -2.5695890241e-03
 2  2  1    -1.6172097680e-01
 2  2  2     1.3427500000e-01
 2  2  3    -4.4506587443e-03
 2  3  1    -2.0928706364e-02
 2  3  2    -8.1076553869e-03
 2  3  3     9.7133570868e-02
 3  1  1     8.1076553869e-03
 3  1  2     1.1566792324e-02
 3  1  3     1.6824027986e-01
 3  2  1    -2.0928706364e-02
 3  2  2    -8.1076553869e-03
 3  2  3     9.7133570868e-02
 3  3  1     3.0711886831e-01
 3  3  2     1.7731516129e-01
 3  3  3     0.0000000000e+00

   20
0.0000000000e+00 0.0000000000e+00 0.0000000000e+00
-8.2067419198e-01 1.4214493970e+00 -9.4304100289e+00
     1      1      2
 1  1  1    -2.3202824421e-01
 1  1  2     3.9886707948e-02
 1  1  3    -2.3218692198e-01
 1  2  1     8.1599625721e-02
 1  2  2     6.7664945011e-02
 1  2  3    -3.4329413370e-01
 1  3  1    -4.6216371066e-02
 1  3  2    -2.5000219378e-01
 1  3  3     3.6904682858e-01
 2  1  1     8.1599625721e-02
 2  1  2     6.7664945011e-02
 2  1  3    -3.4329413370e-01
 2  2  1     9.1747909316e-02
 2  2  2     2.0308595939e-01
 2  2  3     1.6421499903e-01
 2  3  1    -2.5000219378e-01
 2  3  2     2.4246129669e-01
 2  3  3    -6.3920785748e-01
 3  1  1    -4.6216371066e-02
 3  1  2    -2.5000219378e-01
 3  1  3     3.6904682858e-01
 3  2  1    -2.5000219378e-01
 3  2  2     2.4246129669e-01
 3  2  3    -6.3920785748e-01
 3  3  1     2.5938122998e-01
 3  3  2    -4.4926146886e-01
 3  3  3     4.0532967612e-01

   21
0.0000000000e+00 0.0000000000e+00 0.0000000000e+00
-8.2067419198e-01 1.4214493970e+00 -9.4304100289e+00
     1      1      3
 1  1  1     4.6559776741e-01
 1  1  2    -5.4583592031e-01
 1  1  3    -5.5725799068e-01
 1  2  1    -7.3631363243e-01
 1  2  2     1.1248733698e+00
 1  2  3     7.1358334609e-01
 1  3  1    -6.2013206056e-01
 1  3  2     1.0482661329e+00
 1  3  3     8.9318110638e-01
 2  1  1    -7.3631363243e-01
 2  1  2     1.1248733698e+00
 2  1  3     7.1358334609e-01
 2  2  1     1.0149010114e+00
 2  2  2    -2.0184631852e+00
 2  2  3    -1.3812330646e+00
 2  3  1     1.0482661329e+00
 2  3  2    -1.8305655286e+00
 2  3  3    -1.5470350566e+00
 3  1  1    -6.2013206056e-01
 3  1  2     1.0482661329e+00
 3  1  3     8.9318110638e-01
 3  2  1     1.0482661329e+00
 3  2  2    -1.8305655286e+00
 3  2  3    -1.5470350566e+00
 3  3  1     9.4216719990e-01
 3  3  2    -1.6318814595e+00
 3  3  3    -1.5828029977e+00

   22
0.0000000000e+00 0.0000000000e+00 0.0000000000e+00
1.3877787808e-16 2.8428987939e+00 -5.5511151231e-16
     1      1      1
 1  1  1     0.0000000000e+00
 1  1  2     2.4870232882e-01
 1  1  3     0.0000000000e+00
 1  2  1     2.2764464949e-01
 1  2  2     0.0000000000e+00
 1  2  3    -5.1391780482e-03
 1  3  1     0.0000000000e+00
 1  3  2    -2.5609663384e-02
 1  3  3     0.0000000000e+00
 2  1  1     2.2764464949e-01
 2  1  2     0.0000000000e+00
 2  1  3    -5.1391780482e-03
 2  2  1     0.0000000000e+00
 2  2  2    -1.0377748834e+00
 2  2  3     0.0000000000e+00
 2  3  1     6.8858353039e-03
 2  3  2     0.0000000000e+00
 2  3  3     1.9426714174e-01
 3  1  1     0.0000000000e+00
 3  1  2    -2.5609663384e-02
 3  1  3     0.0000000000e+00
 3  2  1     6.8858353039e-03
 3  2  2     0.0000000000e+00
 3  2  3     1.9426714174e-01
 3  3  1     0.0000000000e+00
 3  3  2     3.5463032258e-01
 3  3  3     0.0000000000e+00

   23
0.0000000000e+00 0.0000000000e+00 0.0000000000e+00
-1.6413483840e+00 2.8428987939e+00 -4.7152050144e+00
     1      1      4
 1  1  1     4.2629704296e-02
 1  1  2     2.7052611041e-02
 1  1  3     5.8600495979e-02
 1  2  1    -4.9971428034e-03
 1  2  2    -4.9593231334e-02
 1  2  3     1.1956237237e-01
 1  3  1    -9.6640506822e-04
 1  3  2     1.0815413666e-03
 1  3  3     7.0221580444e-03
 2  1  1    -4.9971428034e-03
 2  1  2    -4.9593231334e-02
 2  1  3     1.1956237237e-01
 2  2  1    -6.8097165344e-02
 2  2  2     1.7058325434e-02
 2  2  3    -7.9458239767e-02
 2  3  1     1.0815413666e-03
 2  3  2    -2.2152614665e-03
 2  3  3    -1.2162734512e-02
 3  1  1    -9.6640506822e-04
 3  1  2     1.0815413666e-03
 3  1  3     7.0221580444e-03
 3  2  1     1.0815413666e-03
 3  2  2    -2.2152614665e-03
 3  2  3    -1.2162734512e-02
 3  3  1     3.1649969648e-02
 3  3  2    -5.4819355488e-02
 3  3  3     1.8508179149e-01

   24
0.0000000000e+00 0.0000000000e+00 0.0000000000e+00
1.6413483840e+00 0.0000000000e+00 -9.4304100289e+00
     1      1      2
 1  1  1     1.1972695576e-01
 1  1  2     0.0000000000e+00
 1  1  3     3.6241595953e-01
 1  2  1     0.0000000000e+00
 1  2  2     2.0899964264e-01
 1  2  3     0.0000000000e+00
 1  3  1     3.8680013056e-01
 1  3  2     0.0000000000e+00
 1  3  3    -7.3809365716e-01
 2  1  1     0.0000000000e+00
 2  1  2     2.0899964264e-01
 2  1  3     0.0000000000e+00
 2  2  1     1.6083371403e-01
 2  2  2     0.0000000000e+00
 2  2  3    -4.3038788248e-01
 2  3  1     0.0000000000e+00
 2  3  2    -1.9055520494e-01
 2  3  3     0.0000000000e+00
 3  1  1     3.8680013056e-01
 3  1  2     0.0000000000e+00
 3  1  3    -7.3809365716e-01
 3  2  1     0.0000000000e+00
 3  2  2    -1.9055520494e-01
 3  2  3     0.0000000000e+00
 3  3  1    -5.1876245997e-01
 3  3  2     0.0000000000e+00
 3  3  3     4.0532967612e-01

   25
0.0000000000e+00 0.0000000000e+00 0.0000000000e+00
1.6413483840e+00 0.0000000000e+00 -9.4304100289e+00
     1      1      3
 1  1  1    -3.0304830225e+00
 1  1  2     0.0000000000e+00
 1  1  3    -1.7932206015e+00
 1  2  1     0.0000000000e+00
 1  2  2    -1.5045925189e-01
 1  2  3     0.0000000000e+00
 1  3  1    -2.4357822625e+00
 1  3  2     0.0000000000e+00
 1  3  3    -1.7863622128e+00
 2  1  1     0.0000000000e+00
 2  1  2    -1.5045925189e-01
 2  1  3     0.0000000000e+00
 2  2  1     6.9485464844e-02
 2  2  2     0.0000000000e+00
 2  2  3    -1.4527045372e-01
 2  3  1     0.0000000000e+00
 2  3  2    -1.4915326570e-02
 2  3  3     0.0000000000e+00
 3  1  1    -2.4357822625e+00
 3  1  2     0.0000000000e+00
 3  1  3    -1.7863622128e+00
 3  2  1     0.0000000000e+00
 3  2  2    -1.4915326570e-02
 3  2  3     0.0000000000e+00
 3  3  1    -1.8843343998e+00
 3  3  2     0.0000000000e+00
 3  3  3    -1.5828029977e+00

   26
0.0000000000e+00 0.0000000000e+00 0.0000000000e+00
3.2826967679e+00 0.0000000000e+00 -4.7152050144e+00
     1      1      4
 1  1  1     7.2175590640e-02
 1  1  2     0.0000000000e+00
 1  1  3    -1.4848760764e-01
 1  2  1     0.0000000000e+00
 1  2  2    -5.8248536563e-02
 1  2  3     0.0000000000e+00
 1  3  1    -2.8396896656e-03
 1  3  2     0.0000000000e+00
 1  3  3    -1.4044316089e-02
 2  1  1     0.0000000000e+00
 2  1  2    -5.8248536563e-02
 2  1  3     0.0000000000e+00
 2  2  1    -2.1240668544e-02
 2  2  2     0.0000000000e+00
 2  2  3     1.2762986385e-01
 2  3  1     0.0000000000e+00
 2  3  2    -3.4197686909e-04
 2  3  3     0.0000000000e+00
 3  1  1    -2.8396896656e-03
 3  1  2     0.0000000000e+00
 3  1  3    -1.4044316089e-02
 3  2  1     0.0000000000e+00
 3  2  2    -3.4197686909e-04
 3  2  3     0.0000000000e+00
 3  3  1    -6.3299939296e-02
 3  3  2     0.0000000000e+00
 3  3  3     1.8508179149e-01

   27
0.0000000000e+00 0.0000000000e+00 0.0000000000e+00
4.1633363423e-15 0.0000000000e+00 -1.4145615043e+01
     1      1      3
 1  1  1     5.4295051011e-03
 1  1  2     0.0000000000e+00
 1  1  3    -2.6558183635e-02
 1  2  1     0.0000000000e+00
 1  2  2    -5.4295051011e-03
 1  2  3     0.0000000000e+00
 1  3  1     8.1596813552e-03
 1  3  2     0.0000000000e+00
 1  3  3     0.0000000000e+00
 2  1  1     0.0000000000e+00
 2  1  2    -5.4295051011e-03
 2  1  3     0.0000000000e+00
 2  2  1    -5.4295051011e-03
 2  2  2     0.0000000000e+00
 2  2  3    -2.6558183635e-02
 2  3  1     0.0000000000e+00
 2  3  2     8.1596813552e-03
 2  3  3     0.0000000000e+00
 3  1  1     8.1596813552e-03
 3  1  2     0.0000000000e+00
 3  1  3     0.0000000000e+00
 3  2  1     0.0000000000e+00
 3  2  2     8.1596813552e-03
 3  2  3     0.0000000000e+00
 3  3  1     0.0000000000e+00
 3  3  2     0.0000000000e+00
 3  3  3     1.5444178435e-01

   28
0.0000000000e+00 0.0000000000e+00 0.0000000000e+00
0.0000000000e+00 0.0000000000e+00 0.0000000000e+00
     1      4      1
 1  1  1    -5.4295051011e-03
 1  1  2     0.0000000000e+00
 1  1  3    -8.1596813552e-03
 1  2  1     0.0000000000e+00
 1  2  2     5.4295051011e-03
 1  2  3     0.0000000000e+00
 1  3  1     2.6558183635e-02
 1  3  2     0.0000000000e+00
 1  3  3     0.0000000000e+00
 2  1  1     0.0000000000e+00
 2  1  2     5.4295051011e-03
 2  1  3     0.0000000000e+00
 2  2  1     5.4295051011e-03
 2  2  2     0.0000000000e+00
 2  2  3    -8.1596813552e-03
 2  3  1     0.0000000000e+00
 2  3  2     2.6558183635e-02
 2  3  3     0.0000000000e+00
 3  1  1    -8.1596813552e-03
 3  1  2     0.0000000000e+00
 3  1  3     0.0000000000e+00
 3  2  1     0.0000000000e+00
 3  2  2    -8.1596813552e-03
 3  2  3     0.0000000000e+00
 3  3  1     0.0000000000e+00
 3  3  2     0.0000000000e+00
 3  3  3    -1.5444178435e-01

   29
0.0000000000e+00 0.0000000000e+00 0.0000000000e+00
0.0000000000e+00 0.0000000000e+00 0.0000000000e+00
     1      4      4
 1  1  1    -4.4041538381e-02
 1  1  2     0.0000000000e+00
 1  1  3    -1.0918129790e-01
 1  2  1     0.0000000000e+00
 1  2  2     4.4041538381e-02
 1  2  3     0.0000000000e+00
 1  3  1    -1.0918129790e-01
 1  3  2     0.0000000000e+00
 1  3  3     0.0000000000e+00
 2  1  1     0.0000000000e+00
 2  1  2     4.4041538381e-02
 2  1  3     0.0000000000e+00
 2  2  1     4.4041538381e-02
 2  2  2     0.0000000000e+00
 2  2  3    -1.0918129790e-01
 2  3  1     0.0000000000e+00
 2  3  2    -1.0918129790e-01
 2  3  3     0.0000000000e+00
 3  1  1    -1.0259315898e-02
 3  1  2     0.0000000000e+00
 3  1  3     0.0000000000e+00
 3  2  1     0.0000000000e+00
 3  2  2    -1.0259315898e-02
 3  2  3     0.0000000000e+00
 3  3  1     0.0000000000e+00
 3  3  2     0.0000000000e+00
 3  3  3     4.0885756648e-01

   30
0.0000000000e+00 0.0000000000e+00 0.0000000000e+00
-1.6413483840e+00 0.0000000000e+00 -4.7152050144e+00
     1      4      2
 1  1  1     1.0481385674e-01
 1  1  2     0.0000000000e+00
 1  1  3     3.6082413856e-02
 1  2  1     0.0000000000e+00
 1  2  2    -1.3649220308e-02
 1  2  3     0.0000000000e+00
 1  3  1     1.5787291469e-02
 1  3  2     0.0000000000e+00
 1  3  3     3.9467320270e-02
 2  1  1     0.0000000000e+00
 2  1  2    -1.6471685538e-02
 2  1  3     0.0000000000e+00
 2  2  1     3.5444974971e-02
 2  2  2     0.0000000000e+00
 2  2  3     4.2867666623e-02
 2  3  1     0.0000000000e+00
 2  3  2     7.8522619860e-02
 2  3  3     0.0000000000e+00
 3  1  1    -7.6115056596e-03
 3  1  2     0.0000000000e+00
 3  1  3    -3.2010755675e-02
 3  2  1     0.0000000000e+00
 3  2  2    -6.7031559359e-03
 3  2  3     0.0000000000e+00
 3  3  1    -1.3740660687e-01
 3  3  2     0.0000000000e+00
 3  3  3    -5.9780409583e-02

   31
0.0000000000e+00 0.0000000000e+00 0.0000000000e+00
8.2067419198e-01 -1.4214493970e+00 -4.7152050144e+00
     1      4      2
 1  1  1    -1.5098258015e-02
 1  1  2     5.2236419635e-02
 1  1  3     4.1171353431e-02
 1  2  1     7.2752727544e-03
 1  2  2    -3.0484060202e-02
 1  2  3     2.9381006334e-03
 1  3  1     6.2838787762e-02
 1  3  2     2.7165194051e-02
 1  3  3    -1.9733660135e-02
 2  1  1     9.7195993449e-03
 2  1  2    -2.9072827587e-02
 2  1  3     2.9381006334e-03
 2  2  1    -5.5031157842e-02
 2  2  2     6.9231291734e-02
 2  2  3     3.7778727048e-02
 2  3  1     2.7165194051e-02
 2  3  2     3.1471123567e-02
 2  3  3     3.4179701973e-02
 3  1  1    -6.9302433668e-03
 3  1  2     3.9332696814e-04
 3  1  3     1.6005377837e-02
 3  2  1     3.9332696814e-04
 3  2  2    -7.3844182287e-03
 3  2  3    -2.7722127609e-02
 3  3  1     6.8703303434e-02
 3  3  2    -1.1899761220e-01
 3  3  3    -5.9780409583e-02

   32
0.0000000000e+00 0.0000000000e+00 0.0000000000e+00
-8.2067419198e-01 -1.4214493970e+00 -9.4304100289e+00
     1      4      3
 1  1  1     2.5722076018e-02
 1  1  2     3.0828300582e-02
 1  1  3    -4.4834786703e-03
 1  2  1    -1.3302748846e-02
 1  2  2     3.2362588576e-02
 1  2  3     7.1434210355e-03
 1  3  1    -2.5160051135e-02
 1  3  2     9.6054726595e-03
 1  3  3     2.4537316886e-03
 2  1  1     4.1540019240e-02
 2  1  2     6.9910165793e-04
 2  1  3     7.1434210355e-03
 2  2  1     2.6178174925e-02
 2  2  2     5.9065570976e-02
 2  2  3     3.7650334452e-03
 2  3  1     9.6054726595e-03
 2  3  2    -1.4068606683e-02
 2  3  3     4.2499879529e-03
 3  1  1     1.4776344491e-02
 3  1  2    -2.5625886646e-03
 3  1  3     2.5825272980e-02
 3  2  1    -2.5625886646e-03