 108  108
   1   1
     2.300865461089877    -0.000000000000000    -0.000000000000007
    -0.000000000000000     2.300865461089876     0.000000000000000
    -0.000000000000007     0.000000000000000     2.723658105710113
   1   2
    -0.000581638116222    -0.000000000000000    -0.003771709864593
     0.000000000000000     0.015650401891712     0.000000000000000
    -0.003771709864593    -0.000000000000000    -0.118201855129677
   1   3
    -0.000581638116222    -0.000000000000000    -0.003771709864593
     0.000000000000000     0.015650401891712     0.000000000000000
    -0.003771709864593    -0.000000000000000    -0.118201855129677
   1   4
     0.011592391889728     0.007028679501058     0.001885854932297
     0.007028679501058     0.003476371885761    -0.003266396558442
     0.001885854932297    -0.003266396558442    -0.118201855129677
   1   5
    -0.004080688221779     0.004760757254190     0.007136599210379
     0.004760757254190     0.001416560742726     0.012360952425632
     0.007136599210379     0.012360952425632    -0.122596275075268
   1   6
    -0.388684789419228     0.290576804652213     0.008220867976993
     0.290576804652214    -0.053155596646794     0.014238961018470
     0.008220867976994     0.014238961018468     0.303393510769634
   1   7
     0.011592391889728     0.007028679501058     0.001885854932297
     0.007028679501058     0.003476371885761    -0.003266396558442
     0.001885854932297    -0.003266396558442    -0.118201855129677
   1   8
    -0.388684789419228     0.290576804652213     0.008220867976993
     0.290576804652214    -0.053155596646794     0.014238961018470
     0.008220867976994     0.014238961018468     0.303393510769634
   1   9
    -0.004080688221779     0.004760757254190     0.007136599210379
     0.004760757254190     0.001416560742726     0.012360952425632
     0.007136599210379     0.012360952425632    -0.122596275075268
   1  10
     0.011592391889728    -0.007028679501058     0.001885854932297
    -0.007028679501058     0.003476371885761     0.003266396558442
     0.001885854932297     0.003266396558442    -0.118201855129677
   1  11
    -0.004080688221779    -0.004760757254190     0.007136599210379
    -0.004760757254190     0.001416560742726    -0.012360952425632
     0.007136599210379    -0.012360952425632    -0.122596275075268
   1  12
    -0.388684789419228    -0.290576804652213     0.008220867976993
    -0.290576804652214    -0.053155596646794    -0.014238961018469
     0.008220867976994    -0.014238961018468     0.303393510769634
   1  13
     0.004165185224979     0.000000000000000    -0.014273198420758
     0.000000000000000    -0.006829312704032     0.000000000000000
    -0.014273198420758    -0.000000000000000    -0.122596275075268
   1  14
    -0.029906566277687    -0.000000000000000    -0.000000000000001
     0.000000000000000    -0.029906566277687     0.000000000000000
     0.000000000000001     0.000000000000001     0.212635441453600
   1  15
    -0.008973434163977    -0.000000000000000     0.010073471716807
     0.000000000000000    -0.005144220652907     0.000000000000000
     0.010073471716807    -0.000000000000000    -0.107632728968420
   1  16
     0.114608999739422    -0.000000000000000    -0.016441735953989
    -0.000000000000000    -0.556449385805445     0.000000000000000
    -0.016441735953987     0.000000000000001     0.303393510769634
   1  17
    -0.006101524030674     0.001658098088551    -0.005036735858403
     0.001658098088551    -0.008016130786209     0.008723882411059
    -0.005036735858404     0.008723882411058    -0.107632728968420
   1  18
    -0.006101524030674    -0.001658098088551    -0.005036735858403
    -0.001658098088551    -0.008016130786209    -0.008723882411058
    -0.005036735858404    -0.008723882411058    -0.107632728968420
   1  19
     0.011592391889728    -0.007028679501058     0.001885854932297
    -0.007028679501058     0.003476371885761     0.003266396558442
     0.001885854932297     0.003266396558442    -0.118201855129677
   1  20
    -0.388684789419228    -0.290576804652213     0.008220867976993
    -0.290576804652213    -0.053155596646794    -0.014238961018469
     0.008220867976993    -0.014238961018469     0.303393510769634
   1  21
    -0.004080688221779    -0.004760757254190     0.007136599210379
    -0.004760757254190     0.001416560742726    -0.012360952425632
     0.007136599210379    -0.012360952425632    -0.122596275075268
   1  22
     0.114608999739422     0.000000000000000    -0.016441735953989
     0.000000000000000    -0.556449385805445     0.000000000000000
    -0.016441735953987    -0.000000000000001     0.303393510769634
   1  23
    -0.006101524030674    -0.001658098088551    -0.005036735858403
    -0.001658098088551    -0.008016130786209    -0.008723882411058
    -0.005036735858403    -0.008723882411058    -0.107632728968420
   1  24
    -0.006101524030674     0.001658098088551    -0.005036735858403
     0.001658098088551    -0.008016130786209     0.008723882411059
    -0.005036735858404     0.008723882411058    -0.107632728968420
   1  25
     0.004165185224979    -0.000000000000000    -0.014273198420758
     0.000000000000000    -0.006829312704032     0.000000000000000
    -0.014273198420757    -0.000000000000000    -0.122596275075268
   1  26
    -0.008973434163977     0.000000000000000     0.010073471716807
    -0.000000000000000    -0.005144220652907     0.000000000000000
     0.010073471716807     0.000000000000000    -0.107632728968420
   1  27
    -0.029906566277687    -0.000000000000000    -0.000000000000001
     0.000000000000000    -0.029906566277687     0.000000000000000
     0.000000000000001     0.000000000000001     0.212635441453600
   1  28
     0.003508638385271    -0.000000000000000     0.000000000000000
    -0.000000000000000     0.003508638385272     0.000000000000000
     0.000000000000000    -0.000000000000000    -0.067946288682269
   1  29
    -0.335299280410049     0.000000000000000    -0.115608049145880
     0.000000000000000    -0.048390576002108     0.000000000000001
    -0.165409516218895     0.000000000000000    -0.080950602218699
   1  30
    -0.203726823052009    -0.000000000000001     0.442952163648248
    -0.000000000000000     0.486983893969339     0.000000000000001
     0.441639829144060     0.000000000000001    -0.465519966754828
   1  31
    -0.120117752104094     0.124235113292079     0.057804024572940
     0.124235113292079    -0.263572104308064    -0.100119507442291
     0.082704758109448    -0.143248843073257    -0.080950602218699
   1  32
    -0.041542425965218     0.041580259307998     0.009951191096502
     0.041580259307998     0.006470321843676     0.017235968574969
     0.001793031537723     0.003105621722910     0.020897372876254
   1  33
     0.001545687635597     0.002843378216350    -0.000368042119324
     0.002843378216350    -0.001737562721638     0.000637467649993
    -0.000408332659981     0.000707252913477    -0.064453835739686
   1  34
     0.314306214714003     0.299086513803325    -0.221476081824123
     0.299086513803325    -0.031049143796671     0.383607826380665
    -0.220819914572029     0.382471311361776    -0.465519966754829
   1  35
    -0.003379187900255    -0.000000000000000     0.000736084238646
     0.000000000000000     0.003187312814214    -0.000000000000000
     0.000816665319962    -0.000000000000000    -0.064453835739686
   1  36
     0.314306214714003    -0.299086513803325    -0.221476081824122
    -0.299086513803325    -0.031049143796671    -0.383607826380664
    -0.220819914572029    -0.382471311361776    -0.465519966754829
   1  37
    -0.120117752104094    -0.124235113292079     0.057804024572940
    -0.124235113292079    -0.263572104308064     0.100119507442292
     0.082704758109448     0.143248843073257    -0.080950602218699
   1  38
    -0.041542425965218    -0.041580259307998     0.009951191096502
    -0.041580259307998     0.006470321843676    -0.017235968574968
     0.001793031537723    -0.003105621722910     0.020897372876254
   1  39
     0.001545687635597    -0.002843378216350    -0.000368042119324
    -0.002843378216350    -0.001737562721638    -0.000637467649993
    -0.000408332659981    -0.000707252913477    -0.064453835739686
   1  40
     0.030476695748123    -0.000000000000000    -0.019902382193004
     0.000000000000000    -0.065548799869665     0.000000000000000
    -0.003586063075446    -0.000000000000000     0.020897372876254
   1  41
    -0.005963639623759    -0.000000000000000    -0.000000000000000
    -0.000000000000000    -0.005963639623759    -0.000000000000000
    -0.000000000000000    -0.000000000000000    -0.060360130286978
   1  42
     0.030476695748123    -0.000000000000000    -0.019902382193004
     0.000000000000000    -0.065548799869665     0.000000000000000
    -0.003586063075446    -0.000000000000000     0.020897372876254
   1  43
     0.001545687635597    -0.002843378216350    -0.000368042119323
    -0.002843378216350    -0.001737562721638    -0.000637467649993
    -0.000408332659981    -0.000707252913477    -0.064453835739686
   1  44
    -0.041542425965218    -0.041580259307998     0.009951191096502
    -0.041580259307998     0.006470321843676    -0.017235968574968
     0.001793031537723    -0.003105621722910     0.020897372876254
   1  45
    -0.120117752104094    -0.124235113292079     0.057804024572940
    -0.124235113292079    -0.263572104308064     0.100119507442292
     0.082704758109448     0.143248843073257    -0.080950602218699
   1  46
     0.314306214714003    -0.299086513803324    -0.221476081824123
    -0.299086513803326    -0.031049143796671    -0.383607826380664
    -0.220819914572031    -0.382471311361775    -0.465519966754829
   1  47
    -0.003379187900255     0.000000000000000     0.000736084238647
     0.000000000000000     0.003187312814214     0.000000000000001
     0.000816665319962     0.000000000000000    -0.064453835739686
   1  48
     0.314306214714003     0.299086513803325    -0.221476081824122
     0.299086513803325    -0.031049143796671     0.383607826380664
    -0.220819914572029     0.382471311361776    -0.465519966754829
   1  49
     0.001545687635597     0.002843378216350    -0.000368042119324
     0.002843378216350    -0.001737562721638     0.000637467649994
    -0.000408332659981     0.000707252913477    -0.064453835739686
   1  50
    -0.041542425965218     0.041580259307998     0.009951191096502
     0.041580259307998     0.006470321843676     0.017235968574969
     0.001793031537723     0.003105621722910     0.020897372876254
   1  51
    -0.120117752104094     0.124235113292079     0.057804024572940
     0.124235113292079    -0.263572104308064    -0.100119507442291
     0.082704758109448    -0.143248843073257    -0.080950602218699
   1  52
    -0.203726823052009     0.000000000000001     0.442952163648248
     0.000000000000000     0.486983893969339    -0.000000000000000
     0.441639829144060    -0.000000000000001    -0.465519966754828
   1  53
    -0.335299280410049    -0.000000000000000    -0.115608049145880
    -0.000000000000000    -0.048390576002108     0.000000000000000
    -0.165409516218895    -0.000000000000000    -0.080950602218700
   1  54
     0.003508638385272    -0.000000000000000    -0.000000000000001
     0.000000000000000     0.003508638385271    -0.000000000000000
    -0.000000000000000    -0.000000000000000    -0.067946288682269
   1  55
     0.233907024108865    -0.000000000000000     0.000000000000010
    -0.000000000000000     0.233907024108865     0.000000000000001
    -0.000000000000000    -0.000000000000000     0.209645772515362
   1  56
     0.067526897033722     0.000000000000000    -0.109576182469208
     0.000000000000000    -0.021841136272066    -0.000000000000006
    -0.022204081805545     0.000000000000000    -0.125792861703003
   1  57
    -0.002802481874613     0.000000000000000    -0.004774866603340
     0.000000000000000     0.001895423210989     0.000000000000001
    -0.000934727407485    -0.000000000000000     0.087995465703018
   1  58
     0.000500872054381    -0.038697493564533     0.054788091234606
    -0.038697493564533     0.045184888707275    -0.094895757668050
     0.011102040902773    -0.019229298911310    -0.125792861703003
   1  59
     0.003110092457651    -0.000304893213096    -0.003651628812930
    -0.000304893213096     0.002758032100341    -0.006324806634393
    -0.001337018082392    -0.002315783249342     0.085753077966032
   1  60
    -0.053169187033947     0.054306618427112     0.034515645831447
     0.012098605922196     0.004242180782153    -0.004619420734917
    -0.020708516205704     0.037833438342365     0.069790856204711
   1  61
     0.000720946939588     0.002034252574349     0.002387433301671
     0.002034252574349    -0.001628005603212    -0.004135155778173
     0.000467363703742    -0.000809497680495     0.087995465703018
   1  62
    -0.038864966787125     0.020357151332247    -0.021258358622933
     0.062565163837162    -0.010062039464669     0.027581715750602
     0.043118976819852     0.000982618062361     0.069790856204708
   1  63
    -0.180474006425438     0.048715889023715    -0.253511069340790
     0.048715889023716    -0.124221743142131    -0.439094052379371
     0.033977507285416     0.058850768932881    -0.104610049281048
   1  64
     0.000500872054381     0.038697493564533     0.054788091234597
     0.038697493564534     0.045184888707275     0.094895757668051
     0.011102040902772     0.019229298911310    -0.125792861703005
   1  65
     0.003110092457651     0.000304893213096    -0.003651628812930
     0.000304893213096     0.002758032100341     0.006324806634394
    -0.001337018082392     0.002315783249342     0.085753077966034
   1  66
    -0.053169187033947    -0.054306618427112     0.034515645831452
    -0.012098605922196     0.004242180782153     0.004619420734917
    -0.020708516205704    -0.037833438342365     0.069790856204709
   1  67
     0.002582001921687    -0.000000000000000     0.007303257625880
     0.000000000000000     0.003286122636306     0.000000000000001
     0.002674036164785    -0.000000000000000     0.085753077966032
   1  68
     0.005479572227794    -0.000000000000000     0.000000000000006
     0.000000000000000     0.005479572227794     0.000000000000000
    -0.000000000000000    -0.000000000000000     0.050058232365656
   1  69
    -0.007637093676242    -0.000000000000000    -0.002164993593511
     0.000000000000000     0.048178602406340     0.000000000000001
     0.003346360888346    -0.000000000000000    -0.128168312073578
   1  70
     0.018643644443381     0.029362551662508    -0.013257287208509
    -0.012845460842407    -0.067570650695175     0.032201136485520
    -0.022410460614148    -0.036850820280004     0.069790856204707
   1  71
     0.034224678385695     0.024168905368714     0.001082496796768
     0.024168905368714     0.006316830344403    -0.001874939451017
    -0.001673180444172     0.002898033539538    -0.128168312073578
   1  72
    -0.004032271824417     0.002872750673545     0.002130126846287
     0.002872750673545    -0.000715105075045     0.003689487924330
     0.001987217149702     0.003441961068956     0.094067198381947
   1  73
     0.000720946939588    -0.002034252574349     0.002387433301671
    -0.002034252574349    -0.001628005603212     0.004135155778174
     0.000467363703742     0.000809497680495     0.087995465703018
   1  74
    -0.038864966787125    -0.020357151332247    -0.021258358622926
    -0.062565163837162    -0.010062039464669    -0.027581715750602
     0.043118976819852    -0.000982618062361     0.069790856204710
   1  75
    -0.180474006425438    -0.048715889023715    -0.253511069340787
    -0.048715889023716    -0.124221743142131     0.439094052379371
     0.033977507285416    -0.058850768932881    -0.104610049281046
   1  76
     0.018643644443381    -0.029362551662508    -0.013257287208505
     0.012845460842407    -0.067570650695175    -0.032201136485519
    -0.022410460614148     0.036850820280004     0.069790856204711
   1  77
     0.034224678385695    -0.024168905368714     0.001082496796767
    -0.024168905368714     0.006316830344403     0.001874939451024
    -0.001673180444173    -0.002898033539538    -0.128168312073578
   1  78
    -0.004032271824417    -0.002872750673545     0.002130126846293
    -0.002872750673545    -0.000715105075045    -0.003689487924323
     0.001987217149702    -0.003441961068956     0.094067198381944
   1  79
    -0.096095611500477     0.000000000000001     0.507022138681576
     0.000000000000000    -0.208600138067092    -0.000000000000007
    -0.067955014570831    -0.000000000000000    -0.104610049281047
   1  80
     0.000943478299641    -0.000000000000000    -0.004260253692574
     0.000000000000000    -0.005690855199104     0.000000000000000
    -0.003974434299404     0.000000000000000     0.094067198381944
   1  81
    -0.017401119867237    -0.000000000000000    -0.000000000000007
     0.000000000000000    -0.017401119867237    -0.000000000000000
    -0.000000000000000    -0.000000000000000     0.022672301149772
   1  82
    -0.017401119867237    -0.000000000000000    -0.000000000000004
    -0.000000000000000    -0.017401119867237     0.000000000000008
     0.000000000000000    -0.000000000000000     0.022672301149775
   1  83
     0.000943478299641    -0.000000000000000    -0.004260253692574
     0.000000000000000    -0.005690855199103     0.000000000000001
    -0.003974434299404    -0.000000000000000     0.094067198381945
   1  84
    -0.096095611500477    -0.000000000000001     0.507022138681566
     0.000000000000000    -0.208600138067092     0.000000000000000
    -0.067955014570831     0.000000000000000    -0.104610049281047
   1  85
    -0.004032271824417    -0.002872750673545     0.002130126846286
    -0.002872750673545    -0.000715105075045    -0.003689487924329
     0.001987217149702    -0.003441961068956     0.094067198381946
   1  86
     0.034224678385695    -0.024168905368714     0.001082496796763
    -0.024168905368714     0.006316830344403     0.001874939451017
    -0.001673180444173    -0.002898033539538    -0.128168312073576
   1  87
     0.018643644443381    -0.029362551662509    -0.013257287208508
     0.012845460842407    -0.067570650695175    -0.032201136485527
    -0.022410460614148     0.036850820280004     0.069790856204712
   1  88
    -0.180474006425438    -0.048715889023715    -0.253511069340794
    -0.048715889023716    -0.124221743142131     0.439094052379371
     0.033977507285416    -0.058850768932881    -0.104610049281045
   1  89
    -0.038864966787125    -0.020357151332247    -0.021258358622937
    -0.062565163837162    -0.010062039464669    -0.027581715750610
     0.043118976819852    -0.000982618062361     0.069790856204713
   1  90
     0.000720946939588    -0.002034252574349     0.002387433301661
    -0.002034252574349    -0.001628005603212     0.004135155778173
     0.000467363703742     0.000809497680495     0.087995465703019
   1  91
    -0.004032271824417     0.002872750673545     0.002130126846287
     0.002872750673545    -0.000715105075045     0.003689487924324
     0.001987217149702     0.003441961068956     0.094067198381947
   1  92
     0.034224678385695     0.024168905368714     0.001082496796756
     0.024168905368714     0.006316830344403    -0.001874939451024
    -0.001673180444173     0.002898033539538    -0.128168312073575
   1  93
     0.018643644443381     0.029362551662508    -0.013257287208505
    -0.012845460842407    -0.067570650695175     0.032201136485512
    -0.022410460614148    -0.036850820280004     0.069790856204709
   1  94
    -0.007637093676242    -0.000000000000000    -0.002164993593518
     0.000000000000000     0.048178602406340     0.000000000000001
     0.003346360888346    -0.000000000000000    -0.128168312073575
   1  95
     0.005479572227794    -0.000000000000000     0.000000000000007
     0.000000000000000     0.005479572227794    -0.000000000000000
     0.000000000000000    -0.000000000000000     0.050058232365656
   1  96
     0.002582001921686     0.000000000000000     0.007303257625867
     0.000000000000000     0.003286122636306     0.000000000000001
     0.002674036164785     0.000000000000000     0.085753077966034
   1  97
    -0.053169187033947    -0.054306618427112     0.034515645831445
    -0.012098605922196     0.004242180782153     0.004619420734909
    -0.020708516205704    -0.037833438342365     0.069790856204710
   1  98
     0.003110092457651     0.000304893213096    -0.003651628812937
     0.000304893213096     0.002758032100341     0.006324806634394
    -0.001337018082392     0.002315783249342     0.085753077966036
   1  99
     0.000500872054381     0.038697493564533     0.054788091234595
     0.038697493564533     0.045184888707275     0.094895757668050
     0.011102040902773     0.019229298911310    -0.125792861703002
   1 100
    -0.180474006425439     0.048715889023715    -0.253511069340798
     0.048715889023714    -0.124221743142130    -0.439094052379370
     0.033977507285415     0.058850768932881    -0.104610049281046
   1 101
    -0.038864966787125     0.020357151332247    -0.021258358622944
     0.062565163837162    -0.010062039464669     0.027581715750610
     0.043118976819852     0.000982618062361     0.069790856204711
   1 102
     0.000720946939588     0.002034252574349     0.002387433301668
     0.002034252574349    -0.001628005603212    -0.004135155778173
     0.000467363703742    -0.000809497680495     0.087995465703022
   1 103
    -0.053169187033947     0.054306618427112     0.034515645831445
     0.012098605922196     0.004242180782153    -0.004619420734909
    -0.020708516205704     0.037833438342365     0.069790856204712
   1 104
     0.003110092457651    -0.000304893213096    -0.003651628812944
    -0.000304893213096     0.002758032100341    -0.006324806634394
    -0.001337018082392    -0.002315783249342     0.085753077966033
   1 105
     0.000500872054381    -0.038697493564533     0.054788091234603
    -0.038697493564533     0.045184888707275    -0.094895757668050
     0.011102040902773    -0.019229298911310    -0.125792861703001
   1 106
    -0.002802481874613     0.000000000000000    -0.004774866603336
     0.000000000000000     0.001895423210989    -0.000000000000007
    -0.000934727407485     0.000000000000000     0.087995465703019
   1 107
     0.067526897033722    -0.000000000000000    -0.109576182469215
     0.000000000000000    -0.021841136272066    -0.000000000000001
    -0.022204081805545    -0.000000000000000    -0.125792861703001
   1 108
     0.233907024108865     0.000000000000000     0.000000000000003
     0.000000000000000     0.233907024108865    -0.000000000000000
     0.000000000000000     0.000000000000000     0.209645772515363
   2   1
    -0.000581638116222     0.000000000000000    -0.003771709864593
    -0.000000000000000     0.015650401891712    -0.000000000000000
    -0.003771709864593     0.000000000000000    -0.118201855129677
   2   2
     2.300865461089876     0.000000000000001     0.000000000000005
     0.000000000000001     2.300865461089876     0.000000000000006
     0.000000000000005     0.000000000000006     2.723658105710112
   2   3
    -0.000581638116222    -0.000000000000000    -0.003771709864593
    -0.000000000000000     0.015650401891712    -0.000000000000000
    -0.003771709864593    -0.000000000000000    -0.118201855129677
   2   4
    -0.388684789419228     0.290576804652214     0.008220867976994
     0.290576804652213    -0.053155596646794     0.014238961018470
     0.008220867976993     0.014238961018470     0.303393510769634
   2   5
     0.011592391889728     0.007028679501058     0.001885854932297
     0.007028679501058     0.003476371885761    -0.003266396558442
     0.001885854932297    -0.003266396558442    -0.118201855129677
   2   6
    -0.004080688221779     0.004760757254190     0.007136599210379
     0.004760757254190     0.001416560742726     0.012360952425632
     0.007136599210378     0.012360952425632    -0.122596275075268
   2   7
    -0.004080688221779     0.004760757254190     0.007136599210379
     0.004760757254190     0.001416560742726     0.012360952425632
     0.007136599210379     0.012360952425632    -0.122596275075268
   2   8
     0.011592391889728     0.007028679501058     0.001885854932297
     0.007028679501058     0.003476371885761    -0.003266396558442
     0.001885854932296    -0.003266396558442    -0.118201855129677
   2   9
    -0.388684789419228     0.290576804652213     0.008220867976995
     0.290576804652213    -0.053155596646794     0.014238961018470
     0.008220867976993     0.014238961018469     0.303393510769634
   2  10
    -0.388684789419228    -0.290576804652214     0.008220867976994
    -0.290576804652213    -0.053155596646794    -0.014238961018469
     0.008220867976993    -0.014238961018470     0.303393510769634
   2  11
     0.011592391889728    -0.007028679501058     0.001885854932297
    -0.007028679501058     0.003476371885761     0.003266396558442
     0.001885854932296     0.003266396558442    -0.118201855129677
   2  12
    -0.004080688221779    -0.004760757254190     0.007136599210379
    -0.004760757254190     0.001416560742726    -0.012360952425632
     0.007136599210378    -0.012360952425632    -0.122596275075268
   2  13
    -0.008973434163976    -0.000000000000000     0.010073471716807
     0.000000000000000    -0.005144220652907     0.000000000000000
     0.010073471716806    -0.000000000000000    -0.107632728968420
   2  14
     0.004165185224979    -0.000000000000000    -0.014273198420757
    -0.000000000000000    -0.006829312704032    -0.000000000000000
    -0.014273198420757    -0.000000000000000    -0.122596275075268
   2  15
    -0.029906566277687    -0.000000000000000     0.000000000000001
    -0.000000000000000    -0.029906566277687     0.000000000000001
     0.000000000000000    -0.000000000000001     0.212635441453600
   2  16
    -0.006101524030674    -0.001658098088551    -0.005036735858403
    -0.001658098088551    -0.008016130786209    -0.008723882411059
    -0.005036735858403    -0.008723882411059    -0.107632728968420
   2  17
     0.114608999739422     0.000000000000000    -0.016441735953987
    -0.000000000000000    -0.556449385805445     0.000000000000001
    -0.016441735953987    -0.000000000000001     0.303393510769634
   2  18
    -0.006101524030674     0.001658098088551    -0.005036735858403
     0.001658098088551    -0.008016130786209     0.008723882411059
    -0.005036735858404     0.008723882411059    -0.107632728968420
   2  19
    -0.004080688221779    -0.004760757254190     0.007136599210379
    -0.004760757254190     0.001416560742726    -0.012360952425632
     0.007136599210379    -0.012360952425632    -0.122596275075268
   2  20
     0.011592391889728    -0.007028679501058     0.001885854932297
    -0.007028679501058     0.003476371885761     0.003266396558442
     0.001885854932296     0.003266396558442    -0.118201855129677
   2  21
    -0.388684789419228    -0.290576804652214     0.008220867976994
    -0.290576804652213    -0.053155596646794    -0.014238961018469
     0.008220867976994    -0.014238961018470     0.303393510769634
   2  22
    -0.006101524030674     0.001658098088551    -0.005036735858403
     0.001658098088551    -0.008016130786209     0.008723882411059
    -0.005036735858404     0.008723882411058    -0.107632728968420
   2  23
     0.114608999739422    -0.000000000000000    -0.016441735953987
    -0.000000000000000    -0.556449385805445     0.000000000000001
    -0.016441735953989     0.000000000000000     0.303393510769634
   2  24
    -0.006101524030674    -0.001658098088551    -0.005036735858403
    -0.001658098088551    -0.008016130786209    -0.008723882411059
    -0.005036735858404    -0.008723882411059    -0.107632728968420
   2  25
    -0.029906566277687    -0.000000000000000     0.000000000000001
    -0.000000000000000    -0.029906566277687     0.000000000000001
     0.000000000000001     0.000000000000001     0.212635441453600
   2  26
     0.004165185224979    -0.000000000000000    -0.014273198420757
    -0.000000000000000    -0.006829312704032    -0.000000000000000
    -0.014273198420758     0.000000000000000    -0.122596275075268
   2  27
    -0.008973434163977     0.000000000000000     0.010073471716807
    -0.000000000000000    -0.005144220652907    -0.000000000000000
     0.010073471716807    -0.000000000000000    -0.107632728968420
   2  28
    -0.203726823052009     0.000000000000000     0.442952163648248
     0.000000000000001     0.486983893969339    -0.000000000000001
     0.441639829144062    -0.000000000000000    -0.465519966754828
   2  29
     0.003508638385272    -0.000000000000000     0.000000000000000
    -0.000000000000000     0.003508638385271     0.000000000000000
     0.000000000000000     0.000000000000000    -0.067946288682269
   2  30
    -0.335299280410049     0.000000000000000    -0.115608049145880
    -0.000000000000000    -0.048390576002108     0.000000000000000
    -0.165409516218895     0.000000000000000    -0.080950602218699
   2  31
     0.001545687635597     0.002843378216350    -0.000368042119323
     0.002843378216350    -0.001737562721638     0.000637467649993
    -0.000408332659981     0.000707252913477    -0.064453835739686
   2  32
    -0.120117752104093     0.124235113292079     0.057804024572940
     0.124235113292079    -0.263572104308065    -0.100119507442292
     0.082704758109447    -0.143248843073257    -0.080950602218699
   2  33
    -0.041542425965218     0.041580259307998     0.009951191096502
     0.041580259307998     0.006470321843676     0.017235968574968
     0.001793031537723     0.003105621722910     0.020897372876254
   2  34
     0.314306214714002    -0.299086513803326    -0.221476081824123
    -0.299086513803325    -0.031049143796672    -0.383607826380665
    -0.220819914572029    -0.382471311361777    -0.465519966754829
   2  35
     0.314306214714002     0.299086513803326    -0.221476081824124
     0.299086513803326    -0.031049143796670     0.383607826380663