  842

    1
0.0000000000e+00 0.0000000000e+00 0.0000000000e+00
0.0000000000e+00 0.0000000000e+00 0.0000000000e+00
     1      1      1
 1  1  1     0.0000000000e+00
 1  1  2     0.0000000000e+00
 1  1  3     0.0000000000e+00
 1  2  1     0.0000000000e+00
 1  2  2     0.0000000000e+00
 1  2  3     4.3239336499e+01
 1  3  1     0.0000000000e+00
 1  3  2     4.3239336499e+01
 1  3  3     0.0000000000e+00
 2  1  1     0.0000000000e+00
 2  1  2     0.0000000000e+00
 2  1  3     4.3239336499e+01
 2  2  1     0.0000000000e+00
 2  2  2     0.0000000000e+00
 2  2  3     0.0000000000e+00
 2  3  1     4.3239336499e+01
 2  3  2     0.0000000000e+00
 2  3  3     0.0000000000e+00
 3  1  1     0.0000000000e+00
 3  1  2     4.3239336499e+01
 3  1  3     0.0000000000e+00
 3  2  1     4.3239336499e+01
 3  2  2     0.0000000000e+00
 3  2  3     0.0000000000e+00
 3  3  1     0.0000000000e+00
 3  3  2     0.0000000000e+00
 3  3  3     0.0000000000e+00

    2
0.0000000000e+00 0.0000000000e+00 0.0000000000e+00
0.0000000000e+00 0.0000000000e+00 0.0000000000e+00
     1      1      2
 1  1  1    -5.2834889707e+00
 1  1  2    -7.4004384366e+00
 1  1  3    -7.4004384366e+00
 1  2  1    -8.2032717077e+00
 1  2  2    -8.2032717077e+00
 1  2  3    -1.0778312312e+01
 1  3  1    -8.2032717077e+00
 1  3  2    -1.0778312312e+01
 1  3  3    -8.2032717077e+00
 2  1  1    -8.2032717077e+00
 2  1  2    -8.2032717077e+00
 2  1  3    -1.0778312312e+01
 2  2  1    -7.4004384366e+00
 2  2  2    -5.2834889707e+00
 2  2  3    -7.4004384366e+00
 2  3  1    -1.0778312312e+01
 2  3  2    -8.2032717077e+00
 2  3  3    -8.2032717077e+00
 3  1  1    -8.2032717077e+00
 3  1  2    -1.0778312312e+01
 3  1  3    -8.2032717077e+00
 3  2  1    -1.0778312312e+01
 3  2  2    -8.2032717077e+00
 3  2  3    -8.2032717077e+00
 3  3  1    -7.4004384366e+00
 3  3  2    -7.4004384366e+00
 3  3  3    -5.2834889707e+00

    3
0.0000000000e+00 0.0000000000e+00 0.0000000000e+00
0.0000000000e+00 2.4065881599e+00 2.4065881599e+00
     1      1      1
 1  1  1     3.2726173178e-01
 1  1  2     8.2576478789e-02
 1  1  3     8.2576478789e-02
 1  2  1    -1.0768099697e-01
 1  2  2    -8.7762830626e-02
 1  2  3     4.6120908437e-02
 1  3  1    -1.0768099697e-01
 1  3  2     4.6120908437e-02
 1  3  3    -8.7762830626e-02
 2  1  1    -1.0768099697e-01
 2  1  2    -8.7762830626e-02
 2  1  3     4.6120908437e-02
 2  2  1    -1.4793705749e-01
 2  2  2    -4.7217500000e-01
 2  2  3    -5.3336912372e-01
 2  3  1    -1.2007002811e-01
 2  3  2    -4.3874544660e-01
 2  3  3    -4.3874544660e-01
 3  1  1    -1.0768099697e-01
 3  1  2     4.6120908437e-02
 3  1  3    -8.7762830626e-02
 3  2  1    -1.2007002811e-01
 3  2  2    -4.3874544660e-01
 3  2  3    -4.3874544660e-01
 3  3  1    -1.4793705749e-01
 3  3  2    -5.3336912372e-01
 3  3  3    -4.7217500000e-01

    4
0.0000000000e+00 0.0000000000e+00 0.0000000000e+00
0.0000000000e+00 -2.4065881599e+00 -2.4065881599e+00
     1      1      1
 1  1  1     3.2726173178e-01
 1  1  2    -8.2576478789e-02
 1  1  3    -8.2576478789e-02
 1  2  1     1.0768099697e-01
 1  2  2    -8.7762830626e-02
 1  2  3     4.6120908437e-02
 1  3  1     1.0768099697e-01
 1  3  2     4.6120908437e-02
 1  3  3    -8.7762830626e-02
 2  1  1     1.0768099697e-01
 2  1  2    -8.7762830626e-02
 2  1  3     4.6120908437e-02
 2  2  1    -1.4793705749e-01
 2  2  2     4.7217500000e-01
 2  2  3     5.3336912372e-01
 2  3  1    -1.2007002811e-01
 2  3  2     4.3874544660e-01
 2  3  3     4.3874544660e-01
 3  1  1     1.0768099697e-01
 3  1  2     4.6120908437e-02
 3  1  3    -8.7762830626e-02
 3  2  1    -1.2007002811e-01
 3  2  2     4.3874544660e-01
 3  2  3     4.3874544660e-01
 3  3  1    -1.4793705749e-01
 3  3  2     5.3336912372e-01
 3  3  3     4.7217500000e-01

    5
0.0000000000e+00 0.0000000000e+00 0.0000000000e+00
0.0000000000e+00 -2.4065881599e+00 -2.4065881599e+00
     1      1      2
 1  1  1    -5.2834889707e+00
 1  1  2     7.4004384366e+00
 1  1  3     7.4004384366e+00
 1  2  1     8.2032717077e+00
 1  2  2    -8.2032717077e+00
 1  2  3    -1.0778312312e+01
 1  3  1     8.2032717077e+00
 1  3  2    -1.0778312312e+01
 1  3  3    -8.2032717077e+00
 2  1  1     8.2032717077e+00
 2  1  2    -8.2032717077e+00
 2  1  3    -1.0778312312e+01
 2  2  1    -7.4004384366e+00
 2  2  2     5.2834889707e+00
 2  2  3     7.4004384366e+00
 2  3  1    -1.0778312312e+01
 2  3  2     8.2032717077e+00
 2  3  3     8.2032717077e+00
 3  1  1     8.2032717077e+00
 3  1  2    -1.0778312312e+01
 3  1  3    -8.2032717077e+00
 3  2  1    -1.0778312312e+01
 3  2  2     8.2032717077e+00
 3  2  3     8.2032717077e+00
 3  3  1    -7.4004384366e+00
 3  3  2     7.4004384366e+00
 3  3  3     5.2834889707e+00

    6
0.0000000000e+00 0.0000000000e+00 0.0000000000e+00
2.4065881599e+00 0.0000000000e+00 2.4065881599e+00
     1      1      1
 1  1  1    -4.7217500000e-01
 1  1  2    -1.4793705749e-01
 1  1  3    -5.3336912372e-01
 1  2  1    -8.7762830626e-02
 1  2  2    -1.0768099697e-01
 1  2  3     4.6120908437e-02
 1  3  1    -4.3874544660e-01
 1  3  2    -1.2007002811e-01
 1  3  3    -4.3874544660e-01
 2  1  1    -8.7762830626e-02
 2  1  2    -1.0768099697e-01
 2  1  3     4.6120908437e-02
 2  2  1     8.2576478789e-02
 2  2  2     3.2726173178e-01
 2  2  3     8.2576478789e-02
 2  3  1     4.6120908437e-02
 2  3  2    -1.0768099697e-01
 2  3  3    -8.7762830626e-02
 3  1  1    -4.3874544660e-01
 3  1  2    -1.2007002811e-01
 3  1  3    -4.3874544660e-01
 3  2  1     4.6120908437e-02
 3  2  2    -1.0768099697e-01
 3  2  3    -8.7762830626e-02
 3  3  1    -5.3336912372e-01
 3  3  2    -1.4793705749e-01
 3  3  3    -4.7217500000e-01

    7
0.0000000000e+00 0.0000000000e+00 0.0000000000e+00
2.4065881599e+00 -2.4065881599e+00 0.0000000000e+00
     1      1      1
 1  1  1    -4.7217500000e-01
 1  1  2     5.3336912372e-01
 1  1  3     1.4793705749e-01
 1  2  1     4.3874544660e-01
 1  2  2    -4.3874544660e-01
 1  2  3    -1.2007002811e-01
 1  3  1     8.7762830626e-02
 1  3  2     4.6120908437e-02
 1  3  3    -1.0768099697e-01
 2  1  1     4.3874544660e-01
 2  1  2    -4.3874544660e-01
 2  1  3    -1.2007002811e-01
 2  2  1    -5.3336912372e-01
 2  2  2     4.7217500000e-01
 2  2  3     1.4793705749e-01
 2  3  1     4.6120908437e-02
 2  3  2     8.7762830626e-02
 2  3  3     1.0768099697e-01
 3  1  1     8.7762830626e-02
 3  1  2     4.6120908437e-02
 3  1  3    -1.0768099697e-01
 3  2  1     4.6120908437e-02
 3  2  2     8.7762830626e-02
 3  2  3     1.0768099697e-01
 3  3  1     8.2576478789e-02
 3  3  2    -8.2576478789e-02
 3  3  3    -3.2726173178e-01

    8
0.0000000000e+00 0.0000000000e+00 0.0000000000e+00
2.4065881599e+00 -2.4065881599e+00 0.0000000000e+00
     1      1      2
 1  1  1     4.1316580006e-02
 1  1  2    -2.6121238235e-02
 1  1  3     2.6121238235e-02
 1  2  1     2.5085017460e-02
 1  2  2    -1.5203942412e-02
 1  2  3    -4.1435020409e-02
 1  3  1    -2.5085017460e-02
 1  3  2    -4.1435020409e-02
 1  3  3    -1.5203942412e-02
 2  1  1     2.5085017460e-02
 2  1  2    -1.5203942412e-02
 2  1  3    -4.1435020409e-02
 2  2  1     1.5471153632e-02
 2  2  2    -2.9069897549e-02
 2  2  3     4.9327807006e-02
 2  3  1     7.9176437226e-02
 2  3  2    -3.7573646348e-02
 2  3  3     3.7573646348e-02
 3  1  1    -2.5085017460e-02
 3  1  2    -4.1435020409e-02
 3  1  3    -1.5203942412e-02
 3  2  1     7.9176437226e-02
 3  2  2    -3.7573646348e-02
 3  2  3     3.7573646348e-02
 3  3  1     1.5471153632e-02
 3  3  2    -4.9327807006e-02
 3  3  3     2.9069897549e-02

    9
0.0000000000e+00 0.0000000000e+00 0.0000000000e+00
-2.4065881599e+00 0.0000000000e+00 -2.4065881599e+00
     1      1      1
 1  1  1     4.7217500000e-01
 1  1  2    -1.4793705749e-01
 1  1  3     5.3336912372e-01
 1  2  1    -8.7762830626e-02
 1  2  2     1.0768099697e-01
 1  2  3     4.6120908437e-02
 1  3  1     4.3874544660e-01
 1  3  2    -1.2007002811e-01
 1  3  3     4.3874544660e-01
 2  1  1    -8.7762830626e-02
 2  1  2     1.0768099697e-01
 2  1  3     4.6120908437e-02
 2  2  1    -8.2576478789e-02
 2  2  2     3.2726173178e-01
 2  2  3    -8.2576478789e-02
 2  3  1     4.6120908437e-02
 2  3  2     1.0768099697e-01
 2  3  3    -8.7762830626e-02
 3  1  1     4.3874544660e-01
 3  1  2    -1.2007002811e-01
 3  1  3     4.3874544660e-01
 3  2  1     4.6120908437e-02
 3  2  2     1.0768099697e-01
 3  2  3    -8.7762830626e-02
 3  3  1     5.3336912372e-01
 3  3  2    -1.4793705749e-01
 3  3  3     4.7217500000e-01

   10
0.0000000000e+00 0.0000000000e+00 0.0000000000e+00
-2.4065881599e+00 0.0000000000e+00 -2.4065881599e+00
     1      1      2
 1  1  1     5.2834889707e+00
 1  1  2    -7.4004384366e+00
 1  1  3     7.4004384366e+00
 1  2  1    -8.2032717077e+00
 1  2  2     8.2032717077e+00
 1  2  3    -1.0778312312e+01
 1  3  1     8.2032717077e+00
 1  3  2    -1.0778312312e+01
 1  3  3     8.2032717077e+00
 2  1  1    -8.2032717077e+00
 2  1  2     8.2032717077e+00
 2  1  3    -1.0778312312e+01
 2  2  1     7.4004384366e+00
 2  2  2    -5.2834889707e+00
 2  2  3     7.4004384366e+00
 2  3  1    -1.0778312312e+01
 2  3  2     8.2032717077e+00
 2  3  3    -8.2032717077e+00
 3  1  1     8.2032717077e+00
 3  1  2    -1.0778312312e+01
 3  1  3     8.2032717077e+00
 3  2  1    -1.0778312312e+01
 3  2  2     8.2032717077e+00
 3  2  3    -8.2032717077e+00
 3  3  1     7.4004384366e+00
 3  3  2    -7.4004384366e+00
 3  3  3     5.2834889707e+00

   11
0.0000000000e+00 0.0000000000e+00 0.0000000000e+00
-2.4065881599e+00 2.4065881599e+00 0.0000000000e+00
     1      1      1
 1  1  1     4.7217500000e-01
 1  1  2    -5.3336912372e-01
 1  1  3     1.4793705749e-01
 1  2  1    -4.3874544660e-01
 1  2  2     4.3874544660e-01
 1  2  3    -1.2007002811e-01
 1  3  1     8.7762830626e-02
 1  3  2     4.6120908437e-02
 1  3  3     1.0768099697e-01
 2  1  1    -4.3874544660e-01
 2  1  2     4.3874544660e-01
 2  1  3    -1.2007002811e-01
 2  2  1     5.3336912372e-01
 2  2  2    -4.7217500000e-01
 2  2  3     1.4793705749e-01
 2  3  1     4.6120908437e-02
 2  3  2     8.7762830626e-02
 2  3  3    -1.0768099697e-01
 3  1  1     8.7762830626e-02
 3  1  2     4.6120908437e-02
 3  1  3     1.0768099697e-01
 3  2  1     4.6120908437e-02
 3  2  2     8.7762830626e-02
 3  2  3    -1.0768099697e-01
 3  3  1    -8.2576478789e-02
 3  3  2     8.2576478789e-02
 3  3  3    -3.2726173178e-01

   12
0.0000000000e+00 0.0000000000e+00 0.0000000000e+00
-2.4065881599e+00 2.4065881599e+00 0.0000000000e+00
     1      1      2
 1  1  1    -2.9069897549e-02
 1  1  2     1.5471153632e-02
 1  1  3     4.9327807006e-02
 1  2  1    -1.5203942412e-02
 1  2  2     2.5085017460e-02
 1  2  3    -4.1435020409e-02
 1  3  1    -3.7573646348e-02
 1  3  2     7.9176437226e-02
 1  3  3     3.7573646348e-02
 2  1  1    -1.5203942412e-02
 2  1  2     2.5085017460e-02
 2  1  3    -4.1435020409e-02
 2  2  1    -2.6121238235e-02
 2  2  2     4.1316580006e-02
 2  2  3     2.6121238235e-02
 2  3  1    -4.1435020409e-02
 2  3  2    -2.5085017460e-02
 2  3  3    -1.5203942412e-02
 3  1  1    -3.7573646348e-02
 3  1  2     7.9176437226e-02
 3  1  3     3.7573646348e-02
 3  2  1    -4.1435020409e-02
 3  2  2    -2.5085017460e-02
 3  2  3    -1.5203942412e-02
 3  3  1    -4.9327807006e-02
 3  3  2     1.5471153632e-02
 3  3  3     2.9069897549e-02

   13
0.0000000000e+00 0.0000000000e+00 0.0000000000e+00
-2.4065881599e+00 -2.4065881599e+00 -4.8131763199e+00
     1      1      2
 1  1  1    -2.9069897549e-02
 1  1  2    -4.9327807006e-02
 1  1  3    -1.5471153632e-02
 1  2  1     3.7573646348e-02
 1  2  2     3.7573646348e-02
 1  2  3     7.9176437226e-02
 1  3  1     1.5203942412e-02
 1  3  2    -4.1435020409e-02
 1  3  3     2.5085017460e-02
 2  1  1     3.7573646348e-02
 2  1  2     3.7573646348e-02
 2  1  3     7.9176437226e-02
 2  2  1    -4.9327807006e-02
 2  2  2    -2.9069897549e-02
 2  2  3    -1.5471153632e-02
 2  3  1    -4.1435020409e-02
 2  3  2     1.5203942412e-02
 2  3  3     2.5085017460e-02
 3  1  1     1.5203942412e-02
 3  1  2    -4.1435020409e-02
 3  1  3     2.5085017460e-02
 3  2  1    -4.1435020409e-02
 3  2  2     1.5203942412e-02
 3  2  3     2.5085017460e-02
 3  3  1    -2.6121238235e-02
 3  3  2    -2.6121238235e-02
 3  3  3    -4.1316580006e-02

   14
0.0000000000e+00 0.0000000000e+00 0.0000000000e+00
2.4065881599e+00 2.4065881599e+00 0.0000000000e+00
     1      1      1
 1  1  1    -4.7217500000e-01
 1  1  2    -5.3336912372e-01
 1  1  3    -1.4793705749e-01
 1  2  1    -4.3874544660e-01
 1  2  2    -4.3874544660e-01
 1  2  3    -1.2007002811e-01
 1  3  1    -8.7762830626e-02
 1  3  2     4.6120908437e-02
 1  3  3    -1.0768099697e-01
 2  1  1    -4.3874544660e-01
 2  1  2    -4.3874544660e-01
 2  1  3    -1.2007002811e-01
 2  2  1    -5.3336912372e-01
 2  2  2    -4.7217500000e-01
 2  2  3    -1.4793705749e-01
 2  3  1     4.6120908437e-02
 2  3  2    -8.7762830626e-02
 2  3  3    -1.0768099697e-01
 3  1  1    -8.7762830626e-02
 3  1  2     4.6120908437e-02
 3  1  3    -1.0768099697e-01
 3  2  1     4.6120908437e-02
 3  2  2    -8.7762830626e-02
 3  2  3    -1.0768099697e-01
 3  3  1     8.2576478789e-02
 3  3  2     8.2576478789e-02
 3  3  3     3.2726173178e-01

   15
0.0000000000e+00 0.0000000000e+00 0.0000000000e+00
2.4065881599e+00 0.0000000000e+00 -2.4065881599e+00
     1      1      1
 1  1  1    -4.7217500000e-01
 1  1  2     1.4793705749e-01
 1  1  3     5.3336912372e-01
 1  2  1     8.7762830626e-02
 1  2  2    -1.0768099697e-01
 1  2  3     4.6120908437e-02
 1  3  1     4.3874544660e-01
 1  3  2    -1.2007002811e-01
 1  3  3    -4.3874544660e-01
 2  1  1     8.7762830626e-02
 2  1  2    -1.0768099697e-01
 2  1  3     4.6120908437e-02
 2  2  1     8.2576478789e-02
 2  2  2    -3.2726173178e-01
 2  2  3    -8.2576478789e-02
 2  3  1     4.6120908437e-02
 2  3  2     1.0768099697e-01
 2  3  3     8.7762830626e-02
 3  1  1     4.3874544660e-01
 3  1  2    -1.2007002811e-01
 3  1  3    -4.3874544660e-01
 3  2  1     4.6120908437e-02
 3  2  2     1.0768099697e-01
 3  2  3     8.7762830626e-02
 3  3  1    -5.3336912372e-01
 3  3  2     1.4793705749e-01
 3  3  3     4.7217500000e-01

   16
0.0000000000e+00 0.0000000000e+00 0.0000000000e+00
2.4065881599e+00 0.0000000000e+00 -2.4065881599e+00
     1      1      2
 1  1  1     4.1316580006e-02
 1  1  2     2.6121238235e-02
 1  1  3    -2.6121238235e-02
 1  2  1    -2.5085017460e-02
 1  2  2    -1.5203942412e-02
 1  2  3    -4.1435020409e-02
 1  3  1     2.5085017460e-02
 1  3  2    -4.1435020409e-02
 1  3  3    -1.5203942412e-02
 2  1  1    -2.5085017460e-02
 2  1  2    -1.5203942412e-02
 2  1  3    -4.1435020409e-02
 2  2  1     1.5471153632e-02
 2  2  2     2.9069897549e-02
 2  2  3    -4.9327807006e-02
 2  3  1     7.9176437226e-02
 2  3  2     3.7573646348e-02
 2  3  3    -3.7573646348e-02
 3  1  1     2.5085017460e-02
 3  1  2    -4.1435020409e-02
 3  1  3    -1.5203942412e-02
 3  2  1     7.9176437226e-02
 3  2  2     3.7573646348e-02
 3  2  3    -3.7573646348e-02
 3  3  1     1.5471153632e-02
 3  3  2     4.9327807006e-02
 3  3  3    -2.9069897549e-02

   17
0.0000000000e+00 0.0000000000e+00 0.0000000000e+00
0.0000000000e+00 2.4065881599e+00 -2.4065881599e+00
     1      1      1
 1  1  1    -3.2726173178e-01
 1  1  2     8.2576478789e-02
 1  1  3    -8.2576478789e-02
 1  2  1    -1.0768099697e-01
 1  2  2     8.7762830626e-02
 1  2  3     4.6120908437e-02
 1  3  1     1.0768099697e-01
 1  3  2     4.6120908437e-02
 1  3  3     8.7762830626e-02
 2  1  1    -1.0768099697e-01
 2  1  2     8.7762830626e-02
 2  1  3     4.6120908437e-02
 2  2  1     1.4793705749e-01
 2  2  2    -4.7217500000e-01
 2  2  3     5.3336912372e-01
 2  3  1    -1.2007002811e-01
 2  3  2     4.3874544660e-01
 2  3  3    -4.3874544660e-01
 3  1  1     1.0768099697e-01
 3  1  2     4.6120908437e-02
 3  1  3     8.7762830626e-02
 3  2  1    -1.2007002811e-01
 3  2  2     4.3874544660e-01
 3  2  3    -4.3874544660e-01
 3  3  1     1.4793705749e-01
 3  3  2    -5.3336912372e-01
 3  3  3     4.7217500000e-01

   18
0.0000000000e+00 0.0000000000e+00 0.0000000000e+00
0.0000000000e+00 2.4065881599e+00 -2.4065881599e+00
     1      1      2
 1  1  1     2.9069897549e-02
 1  1  2     1.5471153632e-02
 1  1  3    -4.9327807006e-02
 1  2  1    -1.5203942412e-02
 1  2  2    -2.5085017460e-02
 1  2  3    -4.1435020409e-02
 1  3  1     3.7573646348e-02
 1  3  2     7.9176437226e-02
 1  3  3    -3.7573646348e-02
 2  1  1    -1.5203942412e-02
 2  1  2    -2.5085017460e-02
 2  1  3    -4.1435020409e-02
 2  2  1     2.6121238235e-02
 2  2  2     4.1316580006e-02
 2  2  3    -2.6121238235e-02
 2  3  1    -4.1435020409e-02
 2  3  2     2.5085017460e-02
 2  3  3    -1.5203942412e-02
 3  1  1     3.7573646348e-02
 3  1  2     7.9176437226e-02
 3  1  3    -3.7573646348e-02
 3  2  1    -4.1435020409e-02
 3  2  2     2.5085017460e-02
 3  2  3    -1.5203942412e-02
 3  3  1     4.9327807006e-02
 3  3  2     1.5471153632e-02
 3  3  3    -2.9069897549e-02

   19
0.0000000000e+00 0.0000000000e+00 0.0000000000e+00
0.0000000000e+00 0.0000000000e+00 -4.8131763199e+00
     1      1      2
 1  1  1     2.9069897549e-02
 1  1  2     4.9327807006e-02
 1  1  3    -1.5471153632e-02
 1  2  1    -3.7573646348e-02
 1  2  2    -3.7573646348e-02
 1  2  3     7.9176437226e-02
 1  3  1     1.5203942412e-02
 1  3  2    -4.1435020409e-02
 1  3  3    -2.5085017460e-02
 2  1  1    -3.7573646348e-02
 2  1  2    -3.7573646348e-02
 2  1  3     7.9176437226e-02
 2  2  1     4.9327807006e-02
 2  2  2     2.9069897549e-02
 2  2  3    -1.5471153632e-02
 2  3  1    -4.1435020409e-02
 2  3  2     1.5203942412e-02
 2  3  3    -2.5085017460e-02
 3  1  1     1.5203942412e-02
 3  1  2    -4.1435020409e-02
 3  1  3    -2.5085017460e-02
 3  2  1    -4.1435020409e-02
 3  2  2     1.5203942412e-02
 3  2  3    -2.5085017460e-02
 3  3  1     2.6121238235e-02
 3  3  2     2.6121238235e-02
 3  3  3    -4.1316580006e-02

   20
0.0000000000e+00 0.0000000000e+00 0.0000000000e+00
-2.4065881599e+00 -2.4065881599e+00 0.0000000000e+00
     1      1      1
 1  1  1     4.7217500000e-01
 1  1  2     5.3336912372e-01
 1  1  3    -1.4793705749e-01
 1  2  1     4.3874544660e-01
 1  2  2     4.3874544660e-01
 1  2  3    -1.2007002811e-01
 1  3  1    -8.7762830626e-02
 1  3  2     4.6120908437e-02
 1  3  3     1.0768099697e-01
 2  1  1     4.3874544660e-01
 2  1  2     4.3874544660e-01
 2  1  3    -1.2007002811e-01
 2  2  1     5.3336912372e-01
 2  2  2     4.7217500000e-01
 2  2  3    -1.4793705749e-01
 2  3  1     4.6120908437e-02
 2  3  2    -8.7762830626e-02
 2  3  3     1.0768099697e-01
 3  1  1    -8.7762830626e-02
 3  1  2     4.6120908437e-02
 3  1  3     1.0768099697e-01
 3  2  1     4.6120908437e-02
 3  2  2    -8.7762830626e-02
 3  2  3     1.0768099697e-01
 3  3  1    -8.2576478789e-02
 3  3  2    -8.2576478789e-02
 3  3  3     3.2726173178e-01

   21
0.0000000000e+00 0.0000000000e+00 0.0000000000e+00
-2.4065881599e+00 -2.4065881599e+00 0.0000000000e+00
     1      1      2
 1  1  1     5.2834889707e+00
 1  1  2     7.4004384366e+00
 1  1  3    -7.4004384366e+00
 1  2  1     8.2032717077e+00
 1  2  2     8.2032717077e+00
 1  2  3    -1.0778312312e+01
 1  3  1    -8.2032717077e+00
 1  3  2    -1.0778312312e+01
 1  3  3     8.2032717077e+00
 2  1  1     8.2032717077e+00
 2  1  2     8.2032717077e+00
 2  1  3    -1.0778312312e+01
 2  2  1     7.4004384366e+00
 2  2  2     5.2834889707e+00
 2  2  3    -7.4004384366e+00
 2  3  1    -1.0778312312e+01
 2  3  2    -8.2032717077e+00
 2  3  3     8.2032717077e+00
 3  1  1    -8.2032717077e+00
 3  1  2    -1.0778312312e+01
 3  1  3     8.2032717077e+00
 3  2  1    -1.0778312312e+01
 3  2  2    -8.2032717077e+00
 3  2  3     8.2032717077e+00
 3  3  1     7.4004384366e+00
 3  3  2     7.4004384366e+00
 3  3  3    -5.2834889707e+00

   22
0.0000000000e+00 0.0000000000e+00 0.0000000000e+00
-2.4065881599e+00 0.0000000000e+00 2.4065881599e+00
     1      1      1
 1  1  1     4.7217500000e-01
 1  1  2     1.4793705749e-01
 1  1  3    -5.3336912372e-01
 1  2  1     8.7762830626e-02
 1  2  2     1.0768099697e-01
 1  2  3     4.6120908437e-02
 1  3  1    -4.3874544660e-01
 1  3  2    -1.2007002811e-01
 1  3  3     4.3874544660e-01
 2  1  1     8.7762830626e-02
 2  1  2     1.0768099697e-01
 2  1  3     4.6120908437e-02
 2  2  1    -8.2576478789e-02
 2  2  2    -3.2726173178e-01
 2  2  3     8.2576478789e-02
 2  3  1     4.6120908437e-02
 2  3  2    -1.0768099697e-01
 2  3  3     8.7762830626e-02
 3  1  1    -4.3874544660e-01
 3  1  2    -1.2007002811e-01
 3  1  3     4.3874544660e-01
 3  2  1     4.6120908437e-02
 3  2  2    -1.0768099697e-01
 3  2  3     8.7762830626e-02
 3  3  1     5.3336912372e-01
 3  3  2     1.4793705749e-01
 3  3  3    -4.7217500000e-01

   23
0.0000000000e+00 0.0000000000e+00 0.0000000000e+00
-2.4065881599e+00 0.0000000000e+00 2.4065881599e+00
     1      1      2
 1  1  1    -2.9069897549e-02
 1  1  2     4.9327807006e-02
 1  1  3     1.5471153632e-02
 1  2  1    -3.7573646348e-02
 1  2  2     3.7573646348e-02
 1  2  3     7.9176437226e-02
 1  3  1    -1.5203942412e-02
 1  3  2    -4.1435020409e-02
 1  3  3     2.5085017460e-02
 2  1  1    -3.7573646348e-02
 2  1  2     3.7573646348e-02
 2  1  3     7.9176437226e-02
 2  2  1    -4.9327807006e-02
 2  2  2     2.9069897549e-02
 2  2  3     1.5471153632e-02
 2  3  1    -4.1435020409e-02
 2  3  2    -1.5203942412e-02
 2  3  3    -2.5085017460e-02
 3  1  1    -1.5203942412e-02
 3  1  2    -4.1435020409e-02
 3  1  3     2.5085017460e-02
 3  2  1    -4.1435020409e-02
 3  2  2    -1.5203942412e-02
 3  2  3    -2.5085017460e-02
 3  3  1    -2.6121238235e-02
 3  3  2     2.6121238235e-02
 3  3  3     4.1316580006e-02

   24
0.0000000000e+00 0.0000000000e+00 0.0000000000e+00
-2.4065881599e+00 -4.8131763199e+00 -2.4065881599e+00
     1      1      2
 1  1  1    -2.9069897549e-02
 1  1  2    -1.5471153632e-02
 1  1  3    -4.9327807006e-02
 1  2  1     1.5203942412e-02
 1  2  2     2.5085017460e-02
 1  2  3    -4.1435020409e-02
 1  3  1     3.7573646348e-02
 1  3  2     7.9176437226e-02
 1  3  3     3.7573646348e-02
 2  1  1     1.5203942412e-02
 2  1  2     2.5085017460e-02
 2  1  3    -4.1435020409e-02
 2  2  1    -2.6121238235e-02
 2  2  2    -4.1316580006e-02
 2  2  3    -2.6121238235e-02
 2  3  1    -4.1435020409e-02
 2  3  2     2.5085017460e-02
 2  3  3     1.5203942412e-02
 3  1  1     3.7573646348e-02
 3  1  2     7.9176437226e-02
 3  1  3     3.7573646348e-02
 3  2  1    -4.1435020409e-02
 3  2  2     2.5085017460e-02
 3  2  3     1.5203942412e-02
 3  3  1    -4.9327807006e-02
 3  3  2    -1.5471153632e-02
 3  3  3    -2.9069897549e-02

   25
0.0000000000e+00 0.0000000000e+00 0.0000000000e+00
0.0000000000e+00 -2.4065881599e+00 2.4065881599e+00
     1      1      1
 1  1  1    -3.2726173178e-01
 1  1  2    -8.2576478789e-02
 1  1  3     8.2576478789e-02
 1  2  1     1.0768099697e-01
 1  2  2     8.7762830626e-02
 1  2  3     4.6120908437e-02
 1  3  1    -1.0768099697e-01
 1  3  2     4.6120908437e-02
 1  3  3     8.7762830626e-02
 2  1  1     1.0768099697e-01
 2  1  2     8.7762830626e-02
 2  1  3     4.6120908437e-02
 2  2  1     1.4793705749e-01
 2  2  2     4.7217500000e-01
 2  2  3    -5.3336912372e-01
 2  3  1    -1.2007002811e-01
 2  3  2    -4.3874544660e-01
 2  3  3     4.3874544660e-01
 3  1  1    -1.0768099697e-01
 3  1  2     4.6120908437e-02
 3  1  3     8.7762830626e-02
 3  2  1    -1.2007002811e-01
 3  2  2    -4.3874544660e-01
 3  2  3     4.3874544660e-01
 3  3  1     1.4793705749e-01
 3  3  2     5.3336912372e-01
 3  3  3    -4.7217500000e-01

   26
0.0000000000e+00 0.0000000000e+00 0.0000000000e+00
0.0000000000e+00 -2.4065881599e+00 2.4065881599e+00
     1      1      2
 1  1  1     2.9069897549e-02
 1  1  2    -4.9327807006e-02
 1  1  3     1.5471153632e-02
 1  2  1     3.7573646348e-02
 1  2  2    -3.7573646348e-02
 1  2  3     7.9176437226e-02
 1  3  1    -1.5203942412e-02
 1  3  2    -4.1435020409e-02
 1  3  3    -2.5085017460e-02
 2  1  1     3.7573646348e-02
 2  1  2    -3.7573646348e-02
 2  1  3     7.9176437226e-02
 2  2  1     4.9327807006e-02
 2  2  2    -2.9069897549e-02
 2  2  3     1.5471153632e-02
 2  3  1    -4.1435020409e-02
 2  3  2    -1.5203942412e-02
 2  3  3     2.5085017460e-02
 3  1  1    -1.5203942412e-02
 3  1  2    -4.1435020409e-02
 3  1  3    -2.5085017460e-02
 3  2  1    -4.1435020409e-02
 3  2  2    -1.5203942412e-02
 3  2  3     2.5085017460e-02
 3  3  1     2.6121238235e-02
 3  3  2    -2.6121238235e-02
 3  3  3     4.1316580006e-02

   27
0.0000000000e+00 0.0000000000e+00 0.0000000000e+00
0.0000000000e+00 -4.8131763199e+00 0.0000000000e+00
     1      1      2
 1  1  1     2.9069897549e-02
 1  1  2    -1.5471153632e-02
 1  1  3     4.9327807006e-02
 1  2  1     1.5203942412e-02
 1  2  2    -2.5085017460e-02
 1  2  3    -4.1435020409e-02
 1  3  1    -3.7573646348e-02
 1  3  2     7.9176437226e-02
 1  3  3    -3.7573646348e-02
 2  1  1     1.5203942412e-02
 2  1  2    -2.5085017460e-02
 2  1  3    -4.1435020409e-02
 2  2  1     2.6121238235e-02
 2  2  2    -4.1316580006e-02
 2  2  3     2.6121238235e-02
 2  3  1    -4.1435020409e-02
 2  3  2    -2.5085017460e-02
 2  3  3     1.5203942412e-02
 3  1  1    -3.7573646348e-02
 3  1  2     7.9176437226e-02
 3  1  3    -3.7573646348e-02
 3  2  1    -4.1435020409e-02
 3  2  2    -2.5085017460e-02
 3  2  3     1.5203942412e-02
 3  3  1     4.9327807006e-02
 3  3  2    -1.5471153632e-02
 3  3  3     2.9069897549e-02

   28
0.0000000000e+00 0.0000000000e+00 0.0000000000e+00
-4.8131763199e+00 -2.4065881599e+00 -2.4065881599e+00
     1      1      2
 1  1  1    -4.1316580006e-02
 1  1  2    -2.6121238235e-02
 1  1  3    -2.6121238235e-02
 1  2  1     2.5085017460e-02
 1  2  2     1.5203942412e-02
 1  2  3    -4.1435020409e-02
 1  3  1     2.5085017460e-02
 1  3  2    -4.1435020409e-02
 1  3  3     1.5203942412e-02
 2  1  1     2.5085017460e-02
 2  1  2     1.5203942412e-02
 2  1  3    -4.1435020409e-02
 2  2  1    -1.5471153632e-02
 2  2  2    -2.9069897549e-02
 2  2  3    -4.9327807006e-02
 2  3  1     7.9176437226e-02
 2  3  2     3.7573646348e-02
 2  3  3     3.7573646348e-02
 3  1  1     2.5085017460e-02
 3  1  2    -4.1435020409e-02
 3  1  3     1.5203942412e-02
 3  2  1     7.9176437226e-02
 3  2  2     3.7573646348e-02
 3  2  3     3.7573646348e-02
 3  3  1    -1.5471153632e-02
 3  3  2    -4.9327807006e-02
 3  3  3    -2.9069897549e-02

   29
0.0000000000e+00 0.0000000000e+00 0.0000000000e+00
-4.8131763199e+00 0.0000000000e+00 0.0000000000e+00
     1      1      2
 1  1  1    -4.1316580006e-02
 1  1  2     2.6121238235e-02
 1  1  3     2.6121238235e-02
 1  2  1    -2.5085017460e-02
 1  2  2     1.5203942412e-02
 1  2  3    -4.1435020409e-02
 1  3  1    -2.5085017460e-02
 1  3  2    -4.1435020409e-02
 1  3  3     1.5203942412e-02
 2  1  1    -2.5085017460e-02
 2  1  2     1.5203942412e-02
 2  1  3    -4.1435020409e-02
 2  2  1    -1.5471153632e-02
 2  2  2     2.9069897549e-02
 2  2  3     4.9327807006e-02
 2  3  1     7.9176437226e-02
 2  3  2    -3.7573646348e-02
 2  3  3    -3.7573646348e-02
 3  1  1    -2.5085017460e-02
 3  1  2    -4.1435020409e-02
 3  1  3     1.5203942412e-02
 3  2  1     7.9176437226e-02
 3  2  2    -3.7573646348e-02
 3  2  3    -3.7573646348e-02
 3  3  1    -1.5471153632e-02
 3  3  2     4.9327807006e-02
 3  3  3     2.9069897549e-02

   30
0.0000000000e+00 0.0000000000e+00 0.0000000000e+00
0.0000000000e+00 0.0000000000e+00 0.0000000000e+00
     1      2      1
 1  1  1    -5.2834889707e+00
 1  1  2    -8.2032717077e+00
 1  1  3    -8.2032717077e+00
 1  2  1    -7.4004384366e+00
 1  2  2    -8.2032717077e+00
 1  2  3    -1.0778312312e+01
 1  3  1    -7.4004384366e+00
 1  3  2    -1.0778312312e+01
 1  3  3    -8.2032717077e+00
 2  1  1    -8.2032717077e+00
 2  1  2    -7.4004384366e+00
 2  1  3    -1.0778312312e+01
 2  2  1    -8.2032717077e+00
 2  2  2    -5.2834889707e+00
 2  2  3    -8.2032717077e+00
 2  3  1    -1.0778312312e+01
 2  3  2    -7.4004384366e+00
 2  3  3    -8.2032717077e+00
 3  1  1    -8.2032717077e+00
 3  1  2    -1.0778312312e+01
 3  1  3    -7.4004384366e+00
 3  2  1    -1.0778312312e+01
 3  2  2    -8.2032717077e+00
 3  2  3    -7.4004384366e+00
 3  3  1    -8.2032717077e+00
 3  3  2    -8.2032717077e+00
 3  3  3    -5.2834889707e+00

   31
0.0000000000e+00 0.0000000000e+00 0.0000000000e+00
0.0000000000e+00 0.0000000000e+00 0.0000000000e+00
     1      2      2
 1  1  1     5.5097874641e+00
 1  1  2     7.5751327151e+00
 1  1  3     7.5751327151e+00
 1  2  1     7.5751327151e+00
 1  2  2     7.6625837760e+00
 1  2  3     9.9427383441e+00
 1  3  1     7.5751327151e+00
 1  3  2     9.9427383441e+00
 1  3  3     7.6625837760e+00
 2  1  1     7.6625837760e+00
 2  1  2     7.5751327151e+00
 2  1  3     9.9427383441e+00
 2  2  1     7.5751327151e+00
 2  2  2     5.5097874641e+00
 2  2  3     7.5751327151e+00
 2  3  1     9.9427383441e+00
 2  3  2     7.5751327151e+00
 2  3  3     7.6625837760e+00
 3  1  1     7.6625837760e+00
 3  1  2     9.9427383441e+00
 3  1  3     7.5751327151e+00
 3  2  1     9.9427383441e+00
 3  2  2     7.6625837760e+00
 3  2  3     7.5751327151e+00
 3  3  1     7.5751327151e+00
 3  3  2     7.5751327151e+00
 3  3  3     5.5097874641e+00

   32
0.0000000000e+00 0.0000000000e+00 0.0000000000e+00
0.0000000000e+00 2.4065881599e+00 2.4065881599e+00
     1      2      1
 1  1  1    -4.2539444275e-01
 1  1  2    -2.4431542426e-01
 1  1  3    -2.4431542426e-01
 1  2  1     0.0000000000e+00
 1  2  2     2.0983348564e-01
 1  2  3     3.0686124026e-02
 1  3  1     0.0000000000e+00
 1  3  2     3.0686124026e-02
 1  3  3     2.0983348564e-01
 2  1  1     2.4431542426e-01
 2  1  2    -3.1231721673e-02
 2  1  3    -3.1017034038e-01
 2  2  1     2.0983348564e-01
 2  2  2     0.0000000000e+00
 2  2  3     3.0754378173e-02
 2  3  1     3.0686124026e-02
 2  3  2     0.0000000000e+00
 2  3  3    -3.0754378173e-02
 3  1  1     2.4431542426e-01
 3  1  2    -3.1017034038e-01
 3  1  3    -3.1231721673e-02
 3  2  1     3.0686124026e-02