   0.10817E+01   0.42981E-04   0.42991E-04
   0.21634E+01   0.73949E-04   0.73961E-04
   0.32452E+01   0.12257E-03   0.12258E-03
   0.43269E+01   0.21586E-03   0.21587E-03
   0.54086E+01   0.42109E-03   0.42109E-03
   0.64903E+01   0.68236E-03   0.68234E-03
   0.75721E+01   0.84776E-03   0.84775E-03
   0.86538E+01   0.10399E-02   0.10399E-02
   0.97355E+01   0.13571E-02   0.13570E-02
   0.10817E+02   0.18437E-02   0.18436E-02
   0.11899E+02   0.25550E-02   0.25548E-02
   0.12981E+02   0.31663E-02   0.31659E-02
   0.14062E+02   0.38303E-02   0.38297E-02
   0.15144E+02   0.50419E-02   0.50410E-02
   0.16226E+02   0.71415E-02   0.71401E-02
   0.17308E+02   0.95953E-02   0.95934E-02
   0.18389E+02   0.14277E-01   0.14275E-01
   0.19471E+02   0.29683E-01   0.29678E-01
   0.20553E+02   0.33810E-01   0.33805E-01
   0.21634E+02   0.35984E-01   0.35979E-01
   0.22716E+02   0.41392E-01   0.41385E-01
   0.23798E+02   0.44813E-01   0.44803E-01
   0.24880E+02   0.54938E-01   0.54922E-01
   0.25961E+02   0.93308E-01   0.93275E-01
   0.27043E+02   0.73655E-01   0.73629E-01
   0.28125E+02   0.57861E-01   0.57842E-01
   0.29207E+02   0.49868E-01   0.49852E-01
   0.30288E+02   0.44399E-01   0.44384E-01
   0.31370E+02   0.41180E-01   0.41169E-01
   0.32452E+02   0.39238E-01   0.39235E-01
   0.33533E+02   0.37592E-01   0.37596E-01
   0.34615E+02   0.36710E-01   0.36723E-01
   0.35697E+02   0.36975E-01   0.36999E-01
   0.36779E+02   0.35886E-01   0.35922E-01
   0.37860E+02   0.35204E-01   0.35261E-01
   0.38942E+02   0.38786E-01   0.38877E-01
   0.40024E+02   0.37918E-01   0.38047E-01
   0.41105E+02   0.26352E-01   0.26457E-01
   0.42187E+02   0.66891E-02   0.67070E-02
   0.43269E+02   0.54560E-02   0.54679E-02
   0.44351E+02   0.57810E-02   0.57921E-02
   0.45432E+02   0.63969E-02   0.64081E-02
   0.46514E+02   0.69784E-02   0.69897E-02
   0.47596E+02   0.74788E-02   0.74902E-02
   0.48678E+02   0.81290E-02   0.81408E-02
   0.49759E+02   0.89447E-02   0.89573E-02
   0.50841E+02   0.97512E-02   0.97645E-02
   0.51923E+02   0.10561E-01   0.10575E-01
   0.53004E+02   0.11554E-01   0.11568E-01
   0.54086E+02   0.12757E-01   0.12770E-01
   0.55168E+02   0.14241E-01   0.14251E-01
   0.56250E+02   0.15943E-01   0.15946E-01
   0.57331E+02   0.17515E-01   0.17506E-01
   0.58413E+02   0.19708E-01   0.19677E-01
   0.59495E+02   0.22563E-01   0.22493E-01
   0.60577E+02   0.26930E-01   0.26782E-01
   0.61658E+02   0.36826E-01   0.36508E-01
   0.62740E+02   0.38092E-01   0.37720E-01
   0.63822E+02   0.28232E-01   0.27965E-01
   0.64903E+02   0.21998E-01   0.21796E-01
   0.65985E+02   0.17462E-01   0.17308E-01
   0.67067E+02   0.16604E-01   0.16558E-01
   0.68149E+02   0.13396E-01   0.13317E-01
   0.69230E+02   0.13749E-01   0.13667E-01
   0.70312E+02   0.15938E-01   0.16006E-01
   0.71394E+02   0.18896E-01   0.19033E-01
   0.72475E+02   0.21822E-01   0.22059E-01
   0.73557E+02   0.24223E-01   0.24521E-01
   0.74639E+02   0.27114E-01   0.27411E-01
   0.75721E+02   0.29776E-01   0.30034E-01
   0.76802E+02   0.31044E-01   0.31260E-01
   0.77884E+02   0.34079E-01   0.34367E-01
   0.78966E+02   0.27952E-01   0.28051E-01
   0.80048E+02   0.25237E-01   0.25309E-01
   0.81129E+02   0.23076E-01   0.23129E-01
   0.82211E+02   0.21864E-01   0.21907E-01
   0.83293E+02   0.20821E-01   0.20855E-01
   0.84374E+02   0.19120E-01   0.19145E-01
   0.85456E+02   0.18085E-01   0.18103E-01
   0.86538E+02   0.18011E-01   0.18023E-01
   0.87620E+02   0.17541E-01   0.17548E-01
   0.88701E+02   0.20178E+00   0.20214E+00
   0.89783E+02   0.16576E+00   0.16561E+00
   0.90865E+02   0.15785E+00   0.15755E+00
   0.91946E+02   0.15946E+00   0.15918E+00
   0.93028E+02   0.18751E+00   0.18739E+00
   0.94110E+02   0.72514E-01   0.72501E-01
   0.95192E+02   0.35838E-01   0.35820E-01
   0.96273E+02   0.22039E-01   0.22020E-01
   0.97355E+02   0.13878E-01   0.13862E-01
   0.98437E+02   0.26766E-02   0.26745E-02
   0.99519E+02   0.00000E+00   0.00000E+00
   0.10060E+03   0.00000E+00   0.00000E+00
   0.10168E+03   0.00000E+00   0.00000E+00
   0.10276E+03   0.00000E+00   0.00000E+00
   0.10385E+03   0.00000E+00   0.00000E+00
   0.10493E+03   0.00000E+00   0.00000E+00
   0.10601E+03   0.00000E+00   0.00000E+00
   0.10709E+03   0.00000E+00   0.00000E+00
   0.10817E+03   0.00000E+00   0.00000E+00
