   0.14807E+01   0.17795E-04   0.12525E-03
   0.29615E+01   0.37244E-04   0.26233E-03
   0.44422E+01   0.84929E-04   0.59927E-03
   0.59230E+01   0.18889E-03   0.13355E-02
   0.74037E+01   0.26149E-03   0.18609E-02
   0.88845E+01   0.34668E-03   0.24888E-02
   0.10365E+02   0.48392E-03   0.35057E-02
   0.11846E+02   0.67892E-03   0.49631E-02
   0.13327E+02   0.81421E-03   0.60276E-02
   0.14807E+02   0.99624E-03   0.74888E-02
   0.16288E+02   0.12791E-02   0.97727E-02
   0.17769E+02   0.15667E-02   0.12181E-01
   0.19250E+02   0.18775E-02   0.14900E-01
   0.20730E+02   0.24151E-02   0.19624E-01
   0.22211E+02   0.29310E-02   0.24425E-01
   0.23692E+02   0.38702E-02   0.33233E-01
   0.25173E+02   0.56982E-02   0.50576E-01
   0.26653E+02   0.77852E-02   0.71596E-01
   0.28134E+02   0.80119E-02   0.76653E-01
   0.29615E+02   0.77678E-02   0.77830E-01
   0.31096E+02   0.80849E-02   0.85142E-01
   0.32576E+02   0.84747E-02   0.94536E-01
   0.34057E+02   0.87745E-02   0.10437E+00
   0.35538E+02   0.10498E-01   0.13394E+00
   0.37019E+02   0.78205E-02   0.10729E+00
   0.38499E+02   0.58809E-02   0.87682E-01
   0.39980E+02   0.49563E-02   0.80319E-01
   0.41461E+02   0.40021E-02   0.70453E-01
   0.42942E+02   0.34256E-02   0.62606E-01
   0.44422E+02   0.30815E-02   0.61723E-01
   0.45903E+02   0.26921E-02   0.57328E-01
   0.47384E+02   0.24792E-02   0.55016E-01
   0.48865E+02   0.20493E-02   0.86186E-01
   0.50345E+02   0.21766E-02   0.96805E-01
   0.51826E+02   0.21786E-02   0.11771E+00
   0.53307E+02   0.12318E-02   0.82481E-01
   0.54788E+02   0.65942E-03   0.59479E-01
   0.56268E+02   0.31511E-03   0.42787E-01
   0.57749E+02   0.91233E-04   0.15376E-01
   0.59230E+02   0.92425E-05   0.30439E-02
   0.60711E+02   0.51731E-07   0.10955E-04
   0.62191E+02   0.00000E+00   0.00000E+00
   0.63672E+02   0.00000E+00   0.00000E+00
   0.65153E+02   0.00000E+00   0.00000E+00
   0.66634E+02   0.00000E+00   0.00000E+00
   0.68114E+02   0.00000E+00   0.00000E+00
   0.69595E+02   0.00000E+00   0.00000E+00
   0.71076E+02   0.00000E+00   0.00000E+00
   0.72557E+02   0.00000E+00   0.00000E+00
   0.74037E+02   0.00000E+00   0.00000E+00
   0.75518E+02   0.00000E+00   0.00000E+00
   0.76999E+02   0.00000E+00   0.00000E+00
   0.78480E+02   0.00000E+00   0.00000E+00
   0.79960E+02   0.00000E+00   0.00000E+00
   0.81441E+02   0.00000E+00   0.00000E+00
   0.82922E+02   0.00000E+00   0.00000E+00
   0.84403E+02   0.00000E+00   0.00000E+00
   0.85883E+02   0.00000E+00   0.00000E+00
   0.87364E+02   0.00000E+00   0.00000E+00
   0.88845E+02   0.00000E+00   0.00000E+00
   0.90326E+02   0.00000E+00   0.00000E+00
   0.91806E+02   0.00000E+00   0.00000E+00
   0.93287E+02   0.00000E+00   0.00000E+00
   0.94768E+02   0.00000E+00   0.00000E+00
   0.96249E+02   0.00000E+00   0.00000E+00
   0.97729E+02   0.00000E+00   0.00000E+00
   0.99210E+02   0.00000E+00   0.00000E+00
   0.10069E+03   0.00000E+00   0.00000E+00
   0.10217E+03   0.00000E+00   0.00000E+00
   0.10365E+03   0.00000E+00   0.00000E+00
   0.10513E+03   0.00000E+00   0.00000E+00
   0.10661E+03   0.00000E+00   0.00000E+00
   0.10809E+03   0.00000E+00   0.00000E+00
   0.10958E+03   0.00000E+00   0.00000E+00
   0.11106E+03   0.00000E+00   0.00000E+00
   0.11254E+03   0.37965E-03   0.43482E-05
   0.11402E+03   0.15932E+00   0.21607E-02
   0.11550E+03   0.16153E+00   0.76794E-02
   0.11698E+03   0.20100E+00   0.13166E-01
   0.11846E+03   0.17258E+00   0.12753E-01
   0.11994E+03   0.15644E+00   0.13082E-01
   0.12142E+03   0.14824E+00   0.13905E-01
   0.12290E+03   0.14910E+00   0.15733E-01
   0.12438E+03   0.66427E-01   0.78510E-02
   0.12586E+03   0.37709E-01   0.48749E-02
   0.12734E+03   0.18665E-01   0.25635E-02
   0.12883E+03   0.38363E+00   0.21336E-01
   0.13031E+03   0.15417E+00   0.69056E-02
   0.13179E+03   0.69978E-01   0.21166E-02
   0.13327E+03   0.32802E-01   0.47671E-03
   0.13475E+03   0.42893E-02   0.16719E-04
   0.13623E+03   0.00000E+00   0.00000E+00
   0.13771E+03   0.00000E+00   0.00000E+00
   0.13919E+03   0.00000E+00   0.00000E+00
   0.14067E+03   0.00000E+00   0.00000E+00
   0.14215E+03   0.00000E+00   0.00000E+00
   0.14363E+03   0.00000E+00   0.00000E+00
   0.14511E+03   0.00000E+00   0.00000E+00
   0.14659E+03   0.00000E+00   0.00000E+00
   0.14807E+03   0.00000E+00   0.00000E+00
