   0.10817E+01   0.19395E-04   0.19395E-04
   0.21634E+01   0.54522E-04   0.54523E-04
   0.32452E+01   0.16477E-03   0.16477E-03
   0.43269E+01   0.24139E-03   0.24139E-03
   0.54086E+01   0.37605E-03   0.37605E-03
   0.64903E+01   0.59622E-03   0.59620E-03
   0.75721E+01   0.74701E-03   0.74697E-03
   0.86538E+01   0.10136E-02   0.10135E-02
   0.97355E+01   0.14026E-02   0.14024E-02
   0.10817E+02   0.17465E-02   0.17463E-02
   0.11899E+02   0.23402E-02   0.23398E-02
   0.12981E+02   0.29691E-02   0.29686E-02
   0.14062E+02   0.38338E-02   0.38330E-02
   0.15144E+02   0.50053E-02   0.50042E-02
   0.16226E+02   0.66616E-02   0.66601E-02
   0.17308E+02   0.88947E-02   0.88929E-02
   0.18389E+02   0.12670E-01   0.12668E-01
   0.19471E+02   0.24693E-01   0.24689E-01
   0.20553E+02   0.34716E-01   0.34711E-01
   0.21634E+02   0.37344E-01   0.37339E-01
   0.22716E+02   0.40981E-01   0.40974E-01
   0.23798E+02   0.45290E-01   0.45281E-01
   0.24880E+02   0.52730E-01   0.52715E-01
   0.25961E+02   0.90345E-01   0.90310E-01
   0.27043E+02   0.82011E-01   0.81983E-01
   0.28125E+02   0.58395E-01   0.58373E-01
   0.29207E+02   0.50200E-01   0.50180E-01
   0.30288E+02   0.45663E-01   0.45650E-01
   0.31370E+02   0.42104E-01   0.42093E-01
   0.32452E+02   0.40211E-01   0.40207E-01
   0.33533E+02   0.37956E-01   0.37959E-01
   0.34615E+02   0.37388E-01   0.37398E-01
   0.35697E+02   0.36224E-01   0.36248E-01
   0.36779E+02   0.36273E-01   0.36314E-01
   0.37860E+02   0.36434E-01   0.36502E-01
   0.38942E+02   0.38772E-01   0.38874E-01
   0.40024E+02   0.38807E-01   0.38952E-01
   0.41105E+02   0.21186E-01   0.21279E-01
   0.42187E+02   0.48202E-02   0.48319E-02
   0.43269E+02   0.52748E-02   0.52862E-02
   0.44351E+02   0.57370E-02   0.57482E-02
   0.45432E+02   0.62834E-02   0.62944E-02
   0.46514E+02   0.68426E-02   0.68536E-02
   0.47596E+02   0.74647E-02   0.74760E-02
   0.48678E+02   0.81348E-02   0.81465E-02
   0.49759E+02   0.88789E-02   0.88914E-02
   0.50841E+02   0.96963E-02   0.97098E-02
   0.51923E+02   0.10620E-01   0.10635E-01
   0.53004E+02   0.11631E-01   0.11647E-01
   0.54086E+02   0.12809E-01   0.12824E-01
   0.55168E+02   0.14172E-01   0.14185E-01
   0.56250E+02   0.15747E-01   0.15756E-01
   0.57331E+02   0.17600E-01   0.17598E-01
   0.58413E+02   0.19900E-01   0.19877E-01
   0.59495E+02   0.22933E-01   0.22871E-01
   0.60577E+02   0.27073E-01   0.26942E-01
   0.61658E+02   0.36222E-01   0.35922E-01
   0.62740E+02   0.43223E-01   0.42778E-01
   0.63822E+02   0.27941E-01   0.27670E-01
   0.64903E+02   0.22270E-01   0.22062E-01
   0.65985E+02   0.17947E-01   0.17793E-01
   0.67067E+02   0.14669E-01   0.14581E-01
   0.68149E+02   0.12341E-01   0.12247E-01
   0.69230E+02   0.12159E-01   0.12044E-01
   0.70312E+02   0.14627E-01   0.14664E-01
   0.71394E+02   0.18697E-01   0.18968E-01
   0.72475E+02   0.21606E-01   0.21910E-01
   0.73557E+02   0.24140E-01   0.24452E-01
   0.74639E+02   0.27371E-01   0.27685E-01
   0.75721E+02   0.29708E-01   0.29974E-01
   0.76802E+02   0.31604E-01   0.31818E-01
   0.77884E+02   0.31873E-01   0.32055E-01
   0.78966E+02   0.30723E-01   0.30818E-01
   0.80048E+02   0.25957E-01   0.26025E-01
   0.81129E+02   0.23614E-01   0.23665E-01
   0.82211E+02   0.22157E-01   0.22197E-01
   0.83293E+02   0.20620E-01   0.20651E-01
   0.84374E+02   0.19532E-01   0.19557E-01
   0.85456E+02   0.18446E-01   0.18464E-01
   0.86538E+02   0.17621E-01   0.17632E-01
   0.87620E+02   0.16828E-01   0.16831E-01
   0.88701E+02   0.20151E+00   0.20125E+00
   0.89783E+02   0.16592E+00   0.16585E+00
   0.90865E+02   0.15961E+00   0.15933E+00
   0.91946E+02   0.16268E+00   0.16238E+00
   0.93028E+02   0.19010E+00   0.18999E+00
   0.94110E+02   0.69295E-01   0.69283E-01
   0.95192E+02   0.35124E-01   0.35109E-01
   0.96273E+02   0.21639E-01   0.21620E-01
   0.97355E+02   0.13058E-01   0.13042E-01
   0.98437E+02   0.36029E-03   0.36012E-03
   0.99519E+02   0.00000E+00   0.00000E+00
   0.10060E+03   0.00000E+00   0.00000E+00
   0.10168E+03   0.00000E+00   0.00000E+00
   0.10276E+03   0.00000E+00   0.00000E+00
   0.10385E+03   0.00000E+00   0.00000E+00
   0.10493E+03   0.00000E+00   0.00000E+00
   0.10601E+03   0.00000E+00   0.00000E+00
   0.10709E+03   0.00000E+00   0.00000E+00
   0.10817E+03   0.00000E+00   0.00000E+00
