         842
 
           1
    0.0000000000E+00    0.0000000000E+00    0.0000000000E+00
    0.0000000000E+00    0.0000000000E+00    0.0000000000E+00
           1           1           1
    1    1    1    0.0000000000E+00
    1    1    2    0.0000000000E+00
    1    1    3    0.0000000000E+00
    1    2    1    0.0000000000E+00
    1    2    2    0.0000000000E+00
    1    2    3    0.3388121619E+02
    1    3    1    0.0000000000E+00
    1    3    2    0.3388121619E+02
    1    3    3    0.0000000000E+00
    2    1    1    0.0000000000E+00
    2    1    2    0.0000000000E+00
    2    1    3    0.3388121619E+02
    2    2    1    0.0000000000E+00
    2    2    2    0.0000000000E+00
    2    2    3    0.0000000000E+00
    2    3    1    0.3388121619E+02
    2    3    2    0.0000000000E+00
    2    3    3    0.0000000000E+00
    3    1    1    0.0000000000E+00
    3    1    2    0.3388121619E+02
    3    1    3    0.0000000000E+00
    3    2    1    0.3388121619E+02
    3    2    2    0.0000000000E+00
    3    2    3    0.0000000000E+00
    3    3    1    0.0000000000E+00
    3    3    2    0.0000000000E+00
    3    3    3    0.0000000000E+00
 
           2
    0.0000000000E+00    0.0000000000E+00    0.0000000000E+00
   -0.2685574539E+01   -0.2685574539E+01    0.0000000000E+00
           1           1           2
    1    1    1    0.2962736097E+01
    1    1    2    0.6165532855E+01
    1    1    3   -0.6165532855E+01
    1    2    1    0.6249578942E+01
    1    2    2    0.6249578942E+01
    1    2    3   -0.8674790695E+01
    1    3    1   -0.6249578942E+01
    1    3    2   -0.8674790695E+01
    1    3    3    0.6249578942E+01
    2    1    1    0.6249578942E+01
    2    1    2    0.6249578942E+01
    2    1    3   -0.8674790695E+01
    2    2    1    0.6165532855E+01
    2    2    2    0.2962736097E+01
    2    2    3   -0.6165532855E+01
    2    3    1   -0.8674790695E+01
    2    3    2   -0.6249578942E+01
    2    3    3    0.6249578942E+01
    3    1    1   -0.6249578942E+01
    3    1    2   -0.8674790695E+01
    3    1    3    0.6249578942E+01
    3    2    1   -0.8674790695E+01
    3    2    2   -0.6249578942E+01
    3    2    3    0.6249578942E+01
    3    3    1    0.6165532855E+01
    3    3    2    0.6165532855E+01
    3    3    3   -0.2962736097E+01
 
           3
    0.0000000000E+00    0.0000000000E+00    0.0000000000E+00
   -0.2685574539E+01    0.0000000000E+00   -0.2685574539E+01
           1           1           2
    1    1    1    0.2962736097E+01
    1    1    2   -0.6165532855E+01
    1    1    3    0.6165532855E+01
    1    2    1   -0.6249578942E+01
    1    2    2    0.6249578942E+01
    1    2    3   -0.8674790695E+01
    1    3    1    0.6249578942E+01
    1    3    2   -0.8674790695E+01
    1    3    3    0.6249578942E+01
    2    1    1   -0.6249578942E+01
    2    1    2    0.6249578942E+01
    2    1    3   -0.8674790695E+01
    2    2    1    0.6165532855E+01
    2    2    2   -0.2962736097E+01
    2    2    3    0.6165532855E+01
    2    3    1   -0.8674790695E+01
    2    3    2    0.6249578942E+01
    2    3    3   -0.6249578942E+01
    3    1    1    0.6249578942E+01
    3    1    2   -0.8674790695E+01
    3    1    3    0.6249578942E+01
    3    2    1   -0.8674790695E+01
    3    2    2    0.6249578942E+01
    3    2    3   -0.6249578942E+01
    3    3    1    0.6165532855E+01
    3    3    2   -0.6165532855E+01
    3    3    3    0.2962736097E+01
 
           4
    0.0000000000E+00    0.0000000000E+00    0.0000000000E+00
    0.0000000000E+00   -0.2685574539E+01   -0.2685574539E+01
           1           1           2
    1    1    1   -0.2962736097E+01
    1    1    2    0.6165532855E+01
    1    1    3    0.6165532855E+01
    1    2    1    0.6249578942E+01
    1    2    2   -0.6249578942E+01
    1    2    3   -0.8674790695E+01
    1    3    1    0.6249578942E+01
    1    3    2   -0.8674790695E+01
    1    3    3   -0.6249578942E+01
    2    1    1    0.6249578942E+01
    2    1    2   -0.6249578942E+01
    2    1    3   -0.8674790695E+01
    2    2    1   -0.6165532855E+01
    2    2    2    0.2962736097E+01
    2    2    3    0.6165532855E+01
    2    3    1   -0.8674790695E+01
    2    3    2    0.6249578942E+01
    2    3    3    0.6249578942E+01
    3    1    1    0.6249578942E+01
    3    1    2   -0.8674790695E+01
    3    1    3   -0.6249578942E+01
    3    2    1   -0.8674790695E+01
    3    2    2    0.6249578942E+01
    3    2    3    0.6249578942E+01
    3    3    1   -0.6165532855E+01
    3    3    2    0.6165532855E+01
    3    3    3    0.2962736097E+01
 
           5
    0.0000000000E+00    0.0000000000E+00    0.0000000000E+00
    0.0000000000E+00    0.0000000000E+00    0.0000000000E+00
           1           1           2
    1    1    1   -0.2962736097E+01
    1    1    2   -0.6165532855E+01
    1    1    3   -0.6165532855E+01
    1    2    1   -0.6249578942E+01
    1    2    2   -0.6249578942E+01
    1    2    3   -0.8674790695E+01
    1    3    1   -0.6249578942E+01
    1    3    2   -0.8674790695E+01
    1    3    3   -0.6249578942E+01
    2    1    1   -0.6249578942E+01
    2    1    2   -0.6249578942E+01
    2    1    3   -0.8674790695E+01
    2    2    1   -0.6165532855E+01
    2    2    2   -0.2962736097E+01
    2    2    3   -0.6165532855E+01
    2    3    1   -0.8674790695E+01
    2    3    2   -0.6249578942E+01
    2    3    3   -0.6249578942E+01
    3    1    1   -0.6249578942E+01
    3    1    2   -0.8674790695E+01
    3    1    3   -0.6249578942E+01
    3    2    1   -0.8674790695E+01
    3    2    2   -0.6249578942E+01
    3    2    3   -0.6249578942E+01
    3    3    1   -0.6165532855E+01
    3    3    2   -0.6165532855E+01
    3    3    3   -0.2962736097E+01
 
           6
    0.0000000000E+00    0.0000000000E+00    0.0000000000E+00
   -0.2685574539E+01   -0.2685574539E+01    0.0000000000E+00
           1           1           1
    1    1    1    0.1726999989E+00
    1    1    2    0.1565254972E+00
    1    1    3   -0.1478508789E+00
    1    2    1    0.2137643420E+00
    1    2    2    0.2137643420E+00
    1    2    3    0.2958212863E-03
    1    3    1   -0.3197535634E-01
    1    3    2    0.6511662188E-01
    1    3    3   -0.1587637051E-01
    2    1    1    0.2137643420E+00
    2    1    2    0.2137643420E+00
    2    1    3    0.2958212863E-03
    2    2    1    0.1565254972E+00
    2    2    2    0.1726999989E+00
    2    2    3   -0.1478508789E+00
    2    3    1    0.6511662188E-01
    2    3    2   -0.3197535634E-01
    2    3    3   -0.1587637051E-01
    3    1    1   -0.3197535634E-01
    3    1    2    0.6511662188E-01
    3    1    3   -0.1587637051E-01
    3    2    1    0.6511662188E-01
    3    2    2   -0.3197535634E-01
    3    2    3   -0.1587637051E-01
    3    3    1   -0.1168038303E+00
    3    3    2   -0.1168038303E+00
    3    3    3    0.7774367956E-01
 
           7
    0.0000000000E+00    0.0000000000E+00    0.0000000000E+00
   -0.2685574539E+01    0.0000000000E+00   -0.2685574539E+01
           1           1           1
    1    1    1    0.1726999989E+00
    1    1    2   -0.1478508789E+00
    1    1    3    0.1565254972E+00
    1    2    1   -0.3197535634E-01
    1    2    2   -0.1587637051E-01
    1    2    3    0.6511662188E-01
    1    3    1    0.2137643420E+00
    1    3    2    0.2958212863E-03
    1    3    3    0.2137643420E+00
    2    1    1   -0.3197535634E-01
    2    1    2   -0.1587637051E-01
    2    1    3    0.6511662188E-01
    2    2    1   -0.1168038303E+00
    2    2    2    0.7774367956E-01
    2    2    3   -0.1168038303E+00
    2    3    1    0.6511662188E-01
    2    3    2   -0.1587637051E-01
    2    3    3   -0.3197535634E-01
    3    1    1    0.2137643420E+00
    3    1    2    0.2958212863E-03
    3    1    3    0.2137643420E+00
    3    2    1    0.6511662188E-01
    3    2    2   -0.1587637051E-01
    3    2    3   -0.3197535634E-01
    3    3    1    0.1565254972E+00
    3    3    2   -0.1478508789E+00
    3    3    3    0.1726999989E+00
 
           8
    0.0000000000E+00    0.0000000000E+00    0.0000000000E+00
   -0.2685574539E+01    0.0000000000E+00    0.2685574539E+01
           1           1           1
    1    1    1    0.1726999989E+00
    1    1    2    0.1478508789E+00
    1    1    3   -0.1565254972E+00
    1    2    1    0.3197535634E-01
    1    2    2   -0.1587637051E-01
    1    2    3    0.6511662188E-01
    1    3    1   -0.2137643420E+00
    1    3    2    0.2958212863E-03
    1    3    3    0.2137643420E+00
    2    1    1    0.3197535634E-01
    2    1    2   -0.1587637051E-01
    2    1    3    0.6511662188E-01
    2    2    1   -0.1168038303E+00
    2    2    2   -0.7774367956E-01
    2    2    3    0.1168038303E+00
    2    3    1    0.6511662188E-01
    2    3    2    0.1587637051E-01
    2    3    3    0.3197535634E-01
    3    1    1   -0.2137643420E+00
    3    1    2    0.2958212863E-03
    3    1    3    0.2137643420E+00
    3    2    1    0.6511662188E-01
    3    2    2    0.1587637051E-01
    3    2    3    0.3197535634E-01
    3    3    1    0.1565254972E+00
    3    3    2    0.1478508789E+00
    3    3    3   -0.1726999989E+00
 
           9
    0.0000000000E+00    0.0000000000E+00    0.0000000000E+00
   -0.2685574539E+01    0.2685574539E+01    0.0000000000E+00
           1           1           1
    1    1    1    0.1726999989E+00
    1    1    2   -0.1565254972E+00
    1    1    3    0.1478508789E+00
    1    2    1   -0.2137643420E+00
    1    2    2    0.2137643420E+00
    1    2    3    0.2958212863E-03
    1    3    1    0.3197535634E-01
    1    3    2    0.6511662188E-01
    1    3    3   -0.1587637051E-01
    2    1    1   -0.2137643420E+00
    2    1    2    0.2137643420E+00
    2    1    3    0.2958212863E-03
    2    2    1    0.1565254972E+00
    2    2    2   -0.1726999989E+00
    2    2    3    0.1478508789E+00
    2    3    1    0.6511662188E-01
    2    3    2    0.3197535634E-01
    2    3    3    0.1587637051E-01
    3    1    1    0.3197535634E-01
    3    1    2    0.6511662188E-01
    3    1    3   -0.1587637051E-01
    3    2    1    0.6511662188E-01
    3    2    2    0.3197535634E-01
    3    2    3    0.1587637051E-01
    3    3    1   -0.1168038303E+00
    3    3    2    0.1168038303E+00
    3    3    3   -0.7774367956E-01
 
          10
    0.0000000000E+00    0.0000000000E+00    0.0000000000E+00
    0.0000000000E+00   -0.2685574539E+01   -0.2685574539E+01
           1           1           1
    1    1    1    0.7774367956E-01
    1    1    2   -0.1168038303E+00
    1    1    3   -0.1168038303E+00
    1    2    1   -0.1587637051E-01
    1    2    2   -0.3197535634E-01
    1    2    3    0.6511662188E-01
    1    3    1   -0.1587637051E-01
    1    3    2    0.6511662188E-01
    1    3    3   -0.3197535634E-01
    2    1    1   -0.1587637051E-01
    2    1    2   -0.3197535634E-01
    2    1    3    0.6511662188E-01
    2    2    1   -0.1478508789E+00
    2    2    2    0.1726999989E+00
    2    2    3    0.1565254972E+00
    2    3    1    0.2958212863E-03
    2    3    2    0.2137643420E+00
    2    3    3    0.2137643420E+00
    3    1    1   -0.1587637051E-01
    3    1    2    0.6511662188E-01
    3    1    3   -0.3197535634E-01
    3    2    1    0.2958212863E-03
    3    2    2    0.2137643420E+00
    3    2    3    0.2137643420E+00
    3    3    1   -0.1478508789E+00
    3    3    2    0.1565254972E+00
    3    3    3    0.1726999989E+00
 
          11
    0.0000000000E+00    0.0000000000E+00    0.0000000000E+00
    0.0000000000E+00   -0.2685574539E+01    0.2685574539E+01
           1           1           1
    1    1    1   -0.7774367956E-01
    1    1    2   -0.1168038303E+00
    1    1    3    0.1168038303E+00
    1    2    1   -0.1587637051E-01
    1    2    2    0.3197535634E-01
    1    2    3    0.6511662188E-01
    1    3    1    0.1587637051E-01
    1    3    2    0.6511662188E-01
    1    3    3    0.3197535634E-01
    2    1    1   -0.1587637051E-01
    2    1    2    0.3197535634E-01
    2    1    3    0.6511662188E-01
    2    2    1    0.1478508789E+00
    2    2    2    0.1726999989E+00
    2    2    3   -0.1565254972E+00
    2    3    1    0.2958212863E-03
    2    3    2   -0.2137643420E+00
    2    3    3    0.2137643420E+00
    3    1    1    0.1587637051E-01
    3    1    2    0.6511662188E-01
    3    1    3    0.3197535634E-01
    3    2    1    0.2958212863E-03
    3    2    2   -0.2137643420E+00
    3    2    3    0.2137643420E+00
    3    3    1    0.1478508789E+00
    3    3    2    0.1565254972E+00
    3    3    3   -0.1726999989E+00
 
          12
    0.0000000000E+00    0.0000000000E+00    0.0000000000E+00
    0.2685574539E+01   -0.2685574539E+01    0.0000000000E+00
           1           1           1
    1    1    1   -0.1726999989E+00
    1    1    2    0.1565254972E+00
    1    1    3    0.1478508789E+00
    1    2    1    0.2137643420E+00
    1    2    2   -0.2137643420E+00
    1    2    3    0.2958212863E-03
    1    3    1    0.3197535634E-01
    1    3    2    0.6511662188E-01
    1    3    3    0.1587637051E-01
    2    1    1    0.2137643420E+00
    2    1    2   -0.2137643420E+00
    2    1    3    0.2958212863E-03
    2    2    1   -0.1565254972E+00
    2    2    2    0.1726999989E+00
    2    2    3    0.1478508789E+00
    2    3    1    0.6511662188E-01
    2    3    2    0.3197535634E-01
    2    3    3   -0.1587637051E-01
    3    1    1    0.3197535634E-01
    3    1    2    0.6511662188E-01
    3    1    3    0.1587637051E-01
    3    2    1    0.6511662188E-01
    3    2    2    0.3197535634E-01
    3    2    3   -0.1587637051E-01
    3    3    1    0.1168038303E+00
    3    3    2   -0.1168038303E+00
    3    3    3   -0.7774367956E-01
 
          13
    0.0000000000E+00    0.0000000000E+00    0.0000000000E+00
    0.0000000000E+00    0.2685574539E+01   -0.2685574539E+01
           1           1           1
    1    1    1   -0.7774367956E-01
    1    1    2    0.1168038303E+00
    1    1    3   -0.1168038303E+00
    1    2    1    0.1587637051E-01
    1    2    2    0.3197535634E-01
    1    2    3    0.6511662188E-01
    1    3    1   -0.1587637051E-01
    1    3    2    0.6511662188E-01
    1    3    3    0.3197535634E-01
    2    1    1    0.1587637051E-01
    2    1    2    0.3197535634E-01
    2    1    3    0.6511662188E-01
    2    2    1    0.1478508789E+00
    2    2    2   -0.1726999989E+00
    2    2    3    0.1565254972E+00
    2    3    1    0.2958212863E-03
    2    3    2    0.2137643420E+00
    2    3    3   -0.2137643420E+00
    3    1    1   -0.1587637051E-01
    3    1    2    0.6511662188E-01
    3    1    3    0.3197535634E-01
    3    2    1    0.2958212863E-03
    3    2    2    0.2137643420E+00
    3    2    3   -0.2137643420E+00
    3    3    1    0.1478508789E+00
    3    3    2   -0.1565254972E+00
    3    3    3    0.1726999989E+00
 
          14
    0.0000000000E+00    0.0000000000E+00    0.0000000000E+00
    0.2685574539E+01    0.0000000000E+00   -0.2685574539E+01
           1           1           1
    1    1    1   -0.1726999989E+00
    1    1    2    0.1478508789E+00
    1    1    3    0.1565254972E+00
    1    2    1    0.3197535634E-01
    1    2    2    0.1587637051E-01
    1    2    3    0.6511662188E-01
    1    3    1    0.2137643420E+00
    1    3    2    0.2958212863E-03
    1    3    3   -0.2137643420E+00
    2    1    1    0.3197535634E-01
    2    1    2    0.1587637051E-01
    2    1    3    0.6511662188E-01
    2    2    1    0.1168038303E+00
    2    2    2   -0.7774367956E-01
    2    2    3   -0.1168038303E+00
    2    3    1    0.6511662188E-01
    2    3    2   -0.1587637051E-01
    2    3    3    0.3197535634E-01
    3    1    1    0.2137643420E+00
    3    1    2    0.2958212863E-03
    3    1    3   -0.2137643420E+00
    3    2    1    0.6511662188E-01
    3    2    2   -0.1587637051E-01
    3    2    3    0.3197535634E-01
    3    3    1   -0.1565254972E+00
    3    3    2    0.1478508789E+00
    3    3    3    0.1726999989E+00
 
          15
    0.0000000000E+00    0.0000000000E+00    0.0000000000E+00
    0.0000000000E+00    0.2685574539E+01    0.2685574539E+01
           1           1           1
    1    1    1    0.7774367956E-01
    1    1    2    0.1168038303E+00
    1    1    3    0.1168038303E+00
    1    2    1    0.1587637051E-01
    1    2    2   -0.3197535634E-01
    1    2    3    0.6511662188E-01
    1    3    1    0.1587637051E-01
    1    3    2    0.6511662188E-01
    1    3    3   -0.3197535634E-01
    2    1    1    0.1587637051E-01
    2    1    2   -0.3197535634E-01
    2    1    3    0.6511662188E-01
    2    2    1   -0.1478508789E+00
    2    2    2   -0.1726999989E+00
    2    2    3   -0.1565254972E+00
    2    3    1    0.2958212863E-03
    2    3    2   -0.2137643420E+00
    2    3    3   -0.2137643420E+00
    3    1    1    0.1587637051E-01
    3    1    2    0.6511662188E-01
    3    1    3   -0.3197535634E-01
    3    2    1    0.2958212863E-03
    3    2    2   -0.2137643420E+00
    3    2    3   -0.2137643420E+00
    3    3    1   -0.1478508789E+00
    3    3    2   -0.1565254972E+00
    3    3    3   -0.1726999989E+00
 
          16
    0.0000000000E+00    0.0000000000E+00    0.0000000000E+00
    0.2685574539E+01    0.0000000000E+00    0.2685574539E+01
           1           1           1
    1    1    1   -0.1726999989E+00
    1    1    2   -0.1478508789E+00
    1    1    3   -0.1565254972E+00
    1    2    1   -0.3197535634E-01
    1    2    2    0.1587637051E-01
    1    2    3    0.6511662188E-01
    1    3    1   -0.2137643420E+00
    1    3    2    0.2958212863E-03
    1    3    3   -0.2137643420E+00
    2    1    1   -0.3197535634E-01
    2    1    2    0.1587637051E-01
    2    1    3    0.6511662188E-01
    2    2    1    0.1168038303E+00
    2    2    2    0.7774367956E-01
    2    2    3    0.1168038303E+00
    2    3    1    0.6511662188E-01
    2    3    2    0.1587637051E-01
    2    3    3   -0.3197535634E-01
    3    1    1   -0.2137643420E+00
    3    1    2    0.2958212863E-03
    3    1    3   -0.2137643420E+00
    3    2    1    0.6511662188E-01
    3    2    2    0.1587637051E-01
    3    2    3   -0.3197535634E-01
    3    3    1   -0.1565254972E+00
    3    3    2   -0.1478508789E+00
    3    3    3   -0.1726999989E+00
 
          17
    0.0000000000E+00    0.0000000000E+00    0.0000000000E+00
    0.2685574539E+01    0.2685574539E+01    0.0000000000E+00
           1           1           1
    1    1    1   -0.1726999989E+00
    1    1    2   -0.1565254972E+00
    1    1    3   -0.1478508789E+00
    1    2    1   -0.2137643420E+00
    1    2    2   -0.2137643420E+00
    1    2    3    0.2958212863E-03
    1    3    1   -0.3197535634E-01
    1    3    2    0.6511662188E-01
    1    3    3    0.1587637051E-01
    2    1    1   -0.2137643420E+00
    2    1    2   -0.2137643420E+00
    2    1    3    0.2958212863E-03
    2    2    1   -0.1565254972E+00
    2    2    2   -0.1726999989E+00
    2    2    3   -0.1478508789E+00
    2    3    1    0.6511662188E-01
    2    3    2   -0.3197535634E-01
    2    3    3    0.1587637051E-01
    3    1    1   -0.3197535634E-01
    3    1    2    0.6511662188E-01
    3    1    3    0.1587637051E-01
    3    2    1    0.6511662188E-01
    3    2    2   -0.3197535634E-01
    3    2    3    0.1587637051E-01
    3    3    1    0.1168038303E+00
    3    3    2    0.1168038303E+00
    3    3    3    0.7774367956E-01
 
          18
    0.0000000000E+00    0.0000000000E+00    0.0000000000E+00
   -0.5371149077E+01   -0.2685574539E+01   -0.2685574539E+01
           1           1           2
    1    1    1    0.2392912030E-02
    1    1    2    0.6806391022E-02
    1    1    3    0.6806391022E-02
    1    2    1    0.8880281164E-02
    1    2    2   -0.9510449048E-02
    1    2    3    0.1048350143E-02
    1    3    1    0.8880281164E-02
    1    3    2    0.1048350143E-02
    1    3    3   -0.9510449048E-02
    2    1    1    0.8880281164E-02
    2    1    2   -0.9510449048E-02
    2    1    3    0.1048350143E-02
    2    2    1   -0.4755152690E-01
    2    2    2   -0.4499434333E-01
    2    2    3   -0.5362485658E-01
    2    3    1    0.7186088225E-01
    2    3    2    0.7785273165E-01
    2    3    3    0.7785273165E-01
    3    1    1    0.8880281164E-02
    3    1    2    0.1048350143E-02
    3    1    3   -0.9510449048E-02
    3    2    1    0.7186088225E-01
    3    2    2    0.7785273165E-01
    3    2    3    0.7785273165E-01
    3    3    1   -0.4755152690E-01
    3    3    2   -0.5362485658E-01
    3    3    3   -0.4499434333E-01
 
          19
    0.0000000000E+00    0.0000000000E+00    0.0000000000E+00
   -0.2685574539E+01   -0.5371149077E+01   -0.2685574539E+01
           1           1           2
    1    1    1   -0.4499434333E-01
    1    1    2   -0.4755152690E-01
    1    1    3   -0.5362485658E-01
    1    2    1   -0.9510449048E-02
    1    2    2    0.8880281164E-02
    1    2    3    0.1048350143E-02
    1    3    1    0.7785273165E-01
    1    3    2    0.7186088225E-01
    1    3    3    0.7785273165E-01
    2    1    1   -0.9510449048E-02
    2    1    2    0.8880281164E-02
    2    1    3    0.1048350143E-02
    2    2    1    0.6806391022E-02
    2    2    2    0.2392912030E-02
    2    2    3    0.6806391022E-02
    2    3    1    0.1048350143E-02
    2    3    2    0.8880281164E-02
    2    3    3   -0.9510449048E-02
    3    1    1    0.7785273165E-01
    3    1    2    0.7186088225E-01
    3    1    3    0.7785273165E-01
    3    2    1    0.1048350143E-02
    3    2    2    0.8880281164E-02
    3    2    3   -0.9510449048E-02
    3    3    1   -0.5362485658E-01
    3    3    2   -0.4755152690E-01
    3    3    3   -0.4499434333E-01
 
          20
    0.0000000000E+00    0.0000000000E+00    0.0000000000E+00
   -0.2685574539E+01   -0.2685574539E+01   -0.5371149077E+01
           1           1           2
    1    1    1   -0.4499434333E-01
    1    1    2   -0.5362485658E-01
    1    1    3   -0.4755152690E-01
    1    2    1    0.7785273165E-01
    1    2    2    0.7785273165E-01
    1    2    3    0.7186088225E-01
    1    3    1   -0.9510449048E-02
    1    3    2    0.1048350143E-02
    1    3    3    0.8880281164E-02
    2    1    1    0.7785273165E-01
    2    1    2    0.7785273165E-01
    2    1    3    0.7186088225E-01
    2    2    1   -0.5362485658E-01
    2    2    2   -0.4499434333E-01
    2    2    3   -0.4755152690E-01
    2    3    1    0.1048350143E-02
    2    3    2   -0.9510449048E-02
    2    3    3    0.8880281164E-02
    3    1    1   -0.9510449048E-02
    3    1    2    0.1048350143E-02
    3    1    3    0.8880281164E-02
    3    2    1    0.1048350143E-02
    3    2    2   -0.9510449048E-02
    3    2    3    0.8880281164E-02
    3    3    1    0.6806391022E-02
    3    3    2    0.6806391022E-02
    3    3    3    0.2392912030E-02
 
          21
    0.0000000000E+00    0.0000000000E+00    0.0000000000E+00
   -0.5371149077E+01    0.0000000000E+00    0.0000000000E+00
           1           1           2
    1    1    1    0.2392912030E-02
    1    1    2   -0.6806391022E-02
    1    1    3   -0.6806391022E-02
    1    2    1   -0.8880281164E-02
    1    2    2   -0.9510449048E-02
    1    2    3    0.1048350143E-02
    1    3    1   -0.8880281164E-02
    1    3    2    0.1048350143E-02
    1    3    3   -0.9510449048E-02
    2    1    1   -0.8880281164E-02
    2    1    2   -0.9510449048E-02
    2    1    3    0.1048350143E-02
    2    2    1   -0.4755152690E-01
    2    2    2    0.4499434333E-01
    2    2    3    0.5362485658E-01
    2    3    1    0.7186088225E-01
    2    3    2   -0.7785273165E-01
    2    3    3   -0.7785273165E-01
    3    1    1   -0.8880281164E-02
    3    1    2    0.1048350143E-02
    3    1    3   -0.9510449048E-02
    3    2    1    0.7186088225E-01
    3    2    2   -0.7785273165E-01
    3    2    3   -0.7785273165E-01
    3    3    1   -0.4755152690E-01
    3    3    2    0.5362485658E-01
    3    3    3    0.4499434333E-01
 
          22
    0.0000000000E+00    0.0000000000E+00    0.0000000000E+00
   -0.2685574539E+01    0.0000000000E+00    0.2685574539E+01
           1           1           2
    1    1    1   -0.4499434333E-01
    1    1    2    0.5362485658E-01
    1    1    3    0.4755152690E-01
    1    2    1   -0.7785273165E-01
    1    2    2    0.7785273165E-01
    1    2    3    0.7186088225E-01
    1    3    1    0.9510449048E-02
    1    3    2    0.1048350143E-02
    1    3    3    0.8880281164E-02
    2    1    1   -0.7785273165E-01
    2    1    2    0.7785273165E-01
    2    1    3    0.7186088225E-01
    2    2    1   -0.5362485658E-01
    2    2    2    0.4499434333E-01
    2    2    3    0.4755152690E-01
    2    3    1    0.1048350143E-02
    2    3    2    0.9510449048E-02
    2    3    3   -0.8880281164E-02
    3    1    1    0.9510449048E-02
    3    1    2    0.1048350143E-02
    3    1    3    0.8880281164E-02
    3    2    1    0.1048350143E-02
    3    2    2    0.9510449048E-02
    3    2    3   -0.8880281164E-02
    3    3    1    0.6806391022E-02
    3    3    2   -0.6806391022E-02
    3    3    3   -0.2392912030E-02
 
          23
    0.0000000000E+00    0.0000000000E+00    0.0000000000E+00
   -0.2685574539E+01    0.2685574539E+01    0.0000000000E+00
           1           1           2
    1    1    1   -0.4499434333E-01
    1    1    2    0.4755152690E-01
    1    1    3    0.5362485658E-01
    1    2    1    0.9510449048E-02
    1    2    2    0.8880281164E-02
    1    2    3    0.1048350143E-02
    1    3    1   -0.7785273165E-01
    1    3    2    0.7186088225E-01
    1    3    3    0.7785273165E-01
    2    1    1    0.9510449048E-02
    2    1    2    0.8880281164E-02
    2    1    3    0.1048350143E-02
    2    2    1    0.6806391022E-02
    2    2    2   -0.2392912030E-02
    2    2    3   -0.6806391022E-02
    2    3    1    0.1048350143E-02
    2    3    2   -0.8880281164E-02
    2    3    3    0.9510449048E-02
    3    1    1   -0.7785273165E-01
    3    1    2    0.7186088225E-01
    3    1    3    0.7785273165E-01
    3    2    1    0.1048350143E-02
    3    2    2   -0.8880281164E-02
    3    2    3    0.9510449048E-02
    3    3    1   -0.5362485658E-01
    3    3    2    0.4755152690E-01
    3    3    3    0.4499434333E-01
 
          24
    0.0000000000E+00    0.0000000000E+00    0.0000000000E+00
    0.0000000000E+00   -0.5371149077E+01    0.0000000000E+00
           1           1           2
    1    1    1    0.4499434333E-01
    1    1    2   -0.4755152690E-01
    1    1    3    0.5362485658E-01
    1    2    1   -0.9510449048E-02
    1    2    2   -0.8880281164E-02
    1    2    3    0.1048350143E-02
    1    3    1   -0.7785273165E-01
    1    3    2    0.7186088225E-01
    1    3    3   -0.7785273165E-01
    2    1    1   -0.9510449048E-02
    2    1    2   -0.8880281164E-02
    2    1    3    0.1048350143E-02
    2    2    1   -0.6806391022E-02
    2    2    2    0.2392912030E-02
    2    2    3   -0.6806391022E-02
    2    3    1    0.1048350143E-02
    2    3    2   -0.8880281164E-02
    2    3    3   -0.9510449048E-02
    3    1    1   -0.7785273165E-01
    3    1    2    0.7186088225E-01
    3    1    3   -0.7785273165E-01
    3    2    1    0.1048350143E-02
    3    2    2   -0.8880281164E-02
    3    2    3   -0.9510449048E-02
    3    3    1    0.5362485658E-01
    3    3    2   -0.4755152690E-01
    3    3    3    0.4499434333E-01
 
          25
    0.0000000000E+00    0.0000000000E+00    0.0000000000E+00
    0.0000000000E+00   -0.2685574539E+01    0.2685574539E+01
           1           1           2
    1    1    1    0.4499434333E-01
    1    1    2   -0.5362485658E-01
    1    1    3    0.4755152690E-01
    1    2    1    0.7785273165E-01
    1    2    2   -0.7785273165E-01
    1    2    3    0.7186088225E-01
    1    3    1    0.9510449048E-02
    1    3    2    0.1048350143E-02
    1    3    3   -0.8880281164E-02
    2    1    1    0.7785273165E-01
    2    1    2   -0.7785273165E-01
    2    1    3    0.7186088225E-01
    2    2    1    0.5362485658E-01
    2    2    2   -0.4499434333E-01
    2    2    3    0.4755152690E-01
    2    3    1    0.1048350143E-02
    2    3    2    0.9510449048E-02
    2    3    3    0.8880281164E-02
    3    1    1    0.9510449048E-02
    3    1    2    0.1048350143E-02
    3    1    3   -0.8880281164E-02
    3    2    1    0.1048350143E-02
    3    2    2    0.9510449048E-02
    3    2    3    0.8880281164E-02
    3    3    1   -0.6806391022E-02
    3    3    2    0.6806391022E-02
    3    3    3   -0.2392912030E-02
 
          26
    0.0000000000E+00    0.0000000000E+00    0.0000000000E+00
    0.2685574539E+01   -0.2685574539E+01    0.0000000000E+00
           1           1           2
    1    1    1   -0.2392912030E-02
    1    1    2    0.6806391022E-02
    1    1    3   -0.6806391022E-02
    1    2    1    0.8880281164E-02
    1    2    2    0.9510449048E-02
    1    2    3    0.1048350143E-02
    1    3    1   -0.8880281164E-02
    1    3    2    0.1048350143E-02
    1    3    3    0.9510449048E-02
    2    1    1    0.8880281164E-02
    2    1    2    0.9510449048E-02
    2    1    3    0.1048350143E-02
    2    2    1    0.4755152690E-01
    2    2    2   -0.4499434333E-01
    2    2    3    0.5362485658E-01
    2    3    1    0.7186088225E-01
    2    3    2   -0.7785273165E-01
    2    3    3    0.7785273165E-01
    3    1    1   -0.8880281164E-02
    3    1    2    0.1048350143E-02
    3    1    3    0.9510449048E-02
    3    2    1    0.7186088225E-01
    3    2    2   -0.7785273165E-01
    3    2    3    0.7785273165E-01
    3    3    1    0.4755152690E-01
    3    3    2   -0.5362485658E-01
    3    3    3    0.4499434333E-01
 
          27
    0.0000000000E+00    0.0000000000E+00    0.0000000000E+00
    0.0000000000E+00    0.0000000000E+00   -0.5371149077E+01
           1           1           2