   0.12571E+01   0.49270E-04   0.42600E-03   0.12177E-03   0.12177E-03
   0.25142E+01   0.88381E-04   0.77245E-03   0.21966E-03   0.21966E-03
   0.37713E+01   0.26929E-03   0.24083E-02   0.66742E-03   0.66742E-03
   0.50285E+01   0.21789E-03   0.19425E-02   0.55059E-03   0.55059E-03
   0.62856E+01   0.26031E-03   0.23640E-02   0.67478E-03   0.67478E-03
   0.75427E+01   0.48524E-03   0.47781E-02   0.13305E-02   0.13305E-02
   0.87998E+01   0.42217E-03   0.39990E-02   0.11401E-02   0.11401E-02
   0.10057E+02   0.50434E-03   0.52053E-02   0.14741E-02   0.14741E-02
   0.11314E+02   0.61522E-03   0.65628E-02   0.18548E-02   0.18548E-02
   0.12571E+02   0.72305E-03   0.98292E-02   0.27163E-02   0.27163E-02
   0.13828E+02   0.78702E-03   0.83402E-02   0.23733E-02   0.23733E-02
   0.15085E+02   0.88860E-03   0.95815E-02   0.27204E-02   0.27204E-02
   0.16343E+02   0.97399E-03   0.10666E-01   0.30318E-02   0.30318E-02
   0.17600E+02   0.10672E-02   0.11823E-01   0.33674E-02   0.33674E-02
   0.18857E+02   0.11649E-02   0.13081E-01   0.37297E-02   0.37297E-02
   0.20114E+02   0.12566E-02   0.14399E-01   0.41023E-02   0.41023E-02
   0.21371E+02   0.13592E-02   0.16065E-01   0.45576E-02   0.45576E-02
   0.22628E+02   0.14578E-02   0.17657E-01   0.50085E-02   0.50085E-02
   0.23885E+02   0.15569E-02   0.19520E-01   0.55340E-02   0.55340E-02
   0.25142E+02   0.16879E-02   0.22179E-01   0.62512E-02   0.62512E-02
   0.26399E+02   0.18829E-02   0.26387E-01   0.72729E-02   0.72729E-02
   0.27657E+02   0.20621E-02   0.27689E-01   0.76364E-02   0.76364E-02
   0.28914E+02   0.21985E-02   0.25638E-01   0.71834E-02   0.71834E-02
   0.30171E+02   0.24812E-02   0.24156E-01   0.68585E-02   0.68585E-02
   0.31428E+02   0.29004E-02   0.24150E-01   0.68188E-02   0.68188E-02
   0.32685E+02   0.35903E-02   0.24615E-01   0.68888E-02   0.68888E-02
   0.33942E+02   0.54475E-02   0.25328E-01   0.70065E-02   0.70065E-02
   0.35199E+02   0.25357E-01   0.26330E-01   0.72494E-02   0.72494E-02
   0.36456E+02   0.27980E-01   0.27645E-01   0.73699E-02   0.73699E-02
   0.37713E+02   0.35638E-01   0.29029E-01   0.75203E-02   0.75203E-02
   0.38971E+02   0.43639E-01   0.30920E-01   0.77387E-02   0.77387E-02
   0.40228E+02   0.51703E-01   0.33586E-01   0.80896E-02   0.80896E-02
   0.41485E+02   0.61121E-01   0.37204E-01   0.86131E-02   0.86131E-02
   0.42742E+02   0.79150E-01   0.41936E-01   0.93108E-02   0.93108E-02
   0.43999E+02   0.10199E+00   0.47066E-01   0.99370E-02   0.99370E-02
   0.45256E+02   0.76522E-01   0.52371E-01   0.10394E-01   0.10394E-01
   0.46513E+02   0.73011E-01   0.58864E-01   0.11018E-01   0.11018E-01
   0.47770E+02   0.86060E-01   0.91478E-01   0.15107E-01   0.15107E-01
   0.49028E+02   0.76759E-01   0.59348E-01   0.10046E-01   0.10046E-01
   0.50285E+02   0.78263E-01   0.49020E-01   0.80613E-02   0.80613E-02
   0.51542E+02   0.82917E-01   0.42873E-01   0.71235E-02   0.71235E-02
   0.52799E+02   0.92973E-01   0.41256E-01   0.68096E-02   0.68096E-02
   0.54056E+02   0.10076E+00   0.83185E-01   0.11362E-01   0.11362E-01
   0.55313E+02   0.10590E+00   0.43135E-01   0.69447E-02   0.69447E-02
   0.56570E+02   0.96748E-01   0.38821E-01   0.65811E-02   0.65811E-02
   0.57827E+02   0.75715E-01   0.34655E-01   0.64539E-02   0.64539E-02
   0.59084E+02   0.72233E-01   0.31838E-01   0.68485E-02   0.68485E-02
   0.60342E+02   0.97541E-01   0.28242E-01   0.10386E-01   0.10386E-01
   0.61599E+02   0.79185E-01   0.28810E-01   0.94051E-02   0.94051E-02
   0.62856E+02   0.93451E-01   0.32516E-01   0.12394E-01   0.12394E-01
   0.64113E+02   0.81699E-01   0.29776E-01   0.12892E-01   0.12892E-01
   0.65370E+02   0.70855E-01   0.27656E-01   0.13077E-01   0.13077E-01
   0.66627E+02   0.64458E-01   0.25638E-01   0.13594E-01   0.13594E-01
   0.67884E+02   0.60960E-01   0.24369E-01   0.15075E-01   0.15075E-01
   0.69141E+02   0.26336E-01   0.21814E-01   0.95146E-02   0.95146E-02
   0.70399E+02   0.16644E-01   0.23513E-01   0.15625E-01   0.15625E-01
   0.71656E+02   0.14983E-01   0.40627E-01   0.19813E-01   0.19813E-01
   0.72913E+02   0.14118E-01   0.67004E-01   0.29003E-01   0.29003E-01
   0.74170E+02   0.10654E-01   0.30451E-01   0.17397E-01   0.17397E-01
   0.75427E+02   0.11164E-01   0.28665E-01   0.27302E-01   0.27302E-01
   0.76684E+02   0.17472E-01   0.57790E-01   0.91731E-01   0.91731E-01
   0.77941E+02   0.27981E-01   0.80514E-01   0.12538E+00   0.12538E+00
   0.79198E+02   0.32819E-01   0.65177E-01   0.11163E+00   0.11163E+00
   0.80455E+02   0.20017E-01   0.37766E-01   0.88898E-01   0.88898E-01
   0.81713E+02   0.11469E-01   0.18762E-01   0.85435E-01   0.85435E-01
   0.82970E+02   0.97553E-02   0.18503E-01   0.75189E-01   0.75189E-01
   0.84227E+02   0.61142E-02   0.76816E-02   0.37197E-01   0.37197E-01
   0.85484E+02   0.51834E-02   0.60892E-02   0.29564E-01   0.29564E-01
   0.86741E+02   0.61975E-02   0.99854E-02   0.42109E-01   0.42109E-01
   0.87998E+02   0.10070E-01   0.43474E-01   0.15979E+00   0.15979E+00
   0.89255E+02   0.83480E-02   0.11500E+00   0.24819E+00   0.24819E+00
   0.90512E+02   0.69869E-02   0.71857E-01   0.14405E+00   0.14405E+00
   0.91769E+02   0.64599E-02   0.46898E-01   0.88929E-01   0.88929E-01
   0.93027E+02   0.76739E-02   0.18084E-01   0.68157E-01   0.68157E-01
   0.94284E+02   0.95202E-02   0.14395E-01   0.61919E-01   0.61919E-01
   0.95541E+02   0.77469E-02   0.84561E-02   0.49320E-01   0.49320E-01
   0.96798E+02   0.54332E-02   0.88423E-02   0.54041E-01   0.54041E-01
   0.98055E+02   0.33143E-02   0.10516E-01   0.78367E-01   0.78367E-01
   0.99312E+02   0.39504E-02   0.17073E-01   0.80070E-01   0.80070E-01
   0.10057E+03   0.61043E-02   0.35582E-01   0.10863E+00   0.10863E+00
   0.10183E+03   0.64312E-02   0.27461E-01   0.77851E-01   0.77851E-01
   0.10308E+03   0.50503E-02   0.16328E-01   0.35875E-01   0.35875E-01
   0.10434E+03   0.29415E-02   0.76449E-02   0.16165E-01   0.16165E-01
   0.10560E+03   0.13055E-02   0.28599E-02   0.60020E-02   0.60020E-02
   0.10685E+03   0.80075E-03   0.10839E-02   0.24239E-02   0.24239E-02
   0.10811E+03   0.64138E-03   0.29472E-03   0.92318E-03   0.92318E-03
   0.10937E+03   0.60924E-03   0.99586E-04   0.54160E-03   0.54160E-03
   0.11063E+03   0.75994E-03   0.50562E-04   0.52323E-03   0.52323E-03
   0.11188E+03   0.65621E-03   0.32417E-04   0.42839E-03   0.42839E-03
   0.11314E+03   0.32462E-03   0.17553E-04   0.22205E-03   0.22205E-03
   0.11440E+03   0.12652E-02   0.98450E-05   0.63960E-03   0.63960E-03
   0.11565E+03   0.11960E-03   0.56529E-05   0.82309E-04   0.82309E-04
   0.11691E+03   0.73646E-04   0.31165E-05   0.50017E-04   0.50017E-04
   0.11817E+03   0.42910E-04   0.16493E-05   0.28828E-04   0.28828E-04
   0.11943E+03   0.23470E-04   0.76269E-06   0.15519E-04   0.15519E-04
   0.12068E+03   0.12354E-04   0.39048E-06   0.81401E-05   0.81401E-05
   0.12194E+03   0.61562E-05   0.19015E-06   0.40449E-05   0.40449E-05
   0.12320E+03   0.27438E-05   0.80197E-07   0.17910E-05   0.17910E-05
   0.12445E+03   0.12465E-05   0.36433E-07   0.81367E-06   0.81367E-06
   0.12571E+03   0.53016E-06   0.15496E-07   0.34607E-06   0.34607E-06
